                         Program Version 5.0.4 -  RELEASE  -
|  1> ! WB97X OPT FREQ def2-TZVP RIJCOSX D4
|  2> %MAXCORE 3500
|  3> %PAL NPROCS 8 END
|  4> * xyz 0 1
|  5>   N   -9.00032079843085     -1.20680291844005     -5.57848422035446
|  6>   C   -10.15724633512096     -0.24483861029780     -5.69207567940752
|  7>   C   -7.76435346742580     -0.70388694013354     -6.22177273693871
|  8>   C   -9.32603914265221     -2.59220284026586     -6.01258729199383
|  9>   H   -7.78616833681682      0.38252470507381     -6.22895892081836
| 10>   H   -7.70837954583034     -1.02736128199126     -7.26695768046377
| 11>   C   -6.47098470163752     -1.11753400078845     -5.53398335736223
| 12>   H   -10.36193488329083     -2.80120020465178     -5.76848796637292
| 13>   C   -8.48315011938401     -3.67594437092063     -5.36504269363779
| 14>   H   -9.24129911766241     -2.69372160509039     -7.09713915823411
| 15>   C   -10.57550170266338      0.06716212820291     -7.14032915027067
| 16>   H   -11.35104369266170      0.84284642807964     -7.11897496377320
| 17>   O   -11.04242378401787     -1.11355963311634     -7.73969350290152
| 18>   H   -9.71670422403391      0.48091296724666     -7.68213711795355
| 19>   C   -11.38506330520729     -0.80973675039237     -4.95898093451392
| 20>   O   -10.99455627269279     -1.32121413731506     -3.66611170833855
| 21>   H   -11.86185224173009     -1.59768815358568     -5.53878776249892
| 22>   H   -12.11105546920155     -0.00636758636535     -4.82355622132686
| 23>   C   -9.79311749041740      1.11620437893916     -5.06843238375396
| 24>   H   -10.71061916916214      1.69318049176349     -4.94484162643696
| 25>   H   -9.12682157707895      1.69249060510108     -5.71221665637426
| 26>   O   -9.16759132088415      0.93730013783740     -3.78605993541842
| 27>   H   -6.22716466023209     -2.16909079746633     -5.67647842429147
| 28>   O   -6.57351924396410     -0.85341841698578     -4.11454628335967
| 29>   H   -5.65749427913131     -0.52462473940733     -5.95378648645192
| 30>   H   -7.45878428634329     -3.70705826102046     -5.73355659669845
| 31>   H   -8.94779966665109     -4.63771874833720     -5.58614610262326
| 32>   O   -8.45785349178516     -3.47773453713281     -3.92882683247117
| 33>   H   -5.69092434812120     -0.74087762161648     -3.74899351480305
| 34>   H   -8.21509176242510     -4.30462047795247     -3.50085073722783
| 35>   H   -11.43441180934109     -0.92074899252860     -8.59583727491543
| 36>   H   -8.99109256151072      1.79925593574280     -3.39646191038653
| 37>   H   -11.77290421177882     -1.66488819021655     -3.21658608367023
| 38> *
| 39>
| 40>                          ****END OF INPUT****
 Total Charge           Charge          ....    0
 Multiplicity           Mult            ....    1
 Number of Electrons    NEL             ....  114
Dispersion correction           -0.006006296
FINAL SINGLE POINT ENERGY      -747.182740462575
Dispersion correction            ... Starting D4
Dispersion correction           -0.005998164
FINAL SINGLE POINT ENERGY      -747.190313335678
Dispersion correction            ... Starting D4
Dispersion correction           -0.005989120
FINAL SINGLE POINT ENERGY      -747.193098682626
Dispersion correction            ... Starting D4
FINAL SINGLE POINT ENERGY      -747.195022367384
FINAL SINGLE POINT ENERGY      -747.197153778973
FINAL SINGLE POINT ENERGY      -747.199287509098
FINAL SINGLE POINT ENERGY      -747.201219714182
FINAL SINGLE POINT ENERGY      -747.203193543137
FINAL SINGLE POINT ENERGY      -747.204949397159
FINAL SINGLE POINT ENERGY      -747.206375909074
FINAL SINGLE POINT ENERGY      -747.233543350604
FINAL SINGLE POINT ENERGY      -747.234764611203
FINAL SINGLE POINT ENERGY      -747.235557109459
FINAL SINGLE POINT ENERGY      -747.235832463230
FINAL SINGLE POINT ENERGY      -747.235894698366
FINAL SINGLE POINT ENERGY      -747.235927843146
FINAL SINGLE POINT ENERGY      -747.235944497844
Dispersion correction           -0.006071779
FINAL SINGLE POINT ENERGY      -747.235960176486
Dispersion correction            ... Starting D4
Dispersion correction           -0.006071937
FINAL SINGLE POINT ENERGY      -747.235963751490
Dispersion correction            ... Starting D4
                    ***********************HURRAY********************

CARTESIAN COORDINATES (ANGSTROEM)
---------------------------------
  N     -9.114669   -1.277834   -5.660429
  C    -10.190011   -0.280164   -5.716613
  C     -7.862404   -0.913801   -6.295050
  C     -9.483394   -2.673266   -5.848980
  H     -7.911420    0.099529   -6.698006
  H     -7.655180   -1.564691   -7.156873
  C     -6.662496   -0.959772   -5.362744
  H    -10.383023   -2.872117   -5.272251
  C     -8.442422   -3.669655   -5.376011
  H     -9.690810   -2.901156   -6.906486
  C    -10.533187    0.193245   -7.136445
  H    -11.375792    0.894948   -7.081014
  O    -10.862734   -0.925263   -7.942644
  H     -9.683761    0.736403   -7.568699
  C    -11.497911   -0.806633   -5.091840
  O    -11.357965   -1.360506   -3.810155
  H    -11.942196   -1.567041   -5.736099
  H    -12.196322    0.042587   -5.076226
  C     -9.760049    0.968942   -4.918218
  H    -10.590533    1.679284   -4.899946
  H     -8.913533    1.466794   -5.405422
  O     -9.437692    0.672589   -3.578845
  H     -6.610649   -1.921071   -4.848446
  O     -6.794855    0.088559   -4.403225
  H     -5.748731   -0.809588   -5.951341
  H     -7.517755   -3.589217   -5.964206
  H     -8.855337   -4.667720   -5.561950
  O     -8.167785   -3.488061   -3.996996
  H     -6.125224   -0.023449   -3.726552
  H     -7.794639   -4.298857   -3.648928
  H    -11.122383   -0.614883   -8.811070
  H     -8.562645    0.255542   -3.609786
  H    -10.715760   -0.814639   -3.336186

 Multiplicity           Mult            ....    1
 Number of Electrons    NEL             ....  114
 Basis Dimension        Dim             ....  548

ORBITAL ENERGIES
----------------

  NO   OCC          E(Eh)            E(eV)
   0   2.0000     -19.207697      -522.6680
   1   2.0000     -19.200351      -522.4681
   2   2.0000     -19.190669      -522.2046
   3   2.0000     -19.177717      -521.8522
   4   2.0000     -19.159530      -521.3573
   5   2.0000     -14.376520      -391.2050
   6   2.0000     -10.302963      -280.3579
   7   2.0000     -10.299860      -280.2734
   8   2.0000     -10.297149      -280.1997
   9   2.0000     -10.290339      -280.0144
  10   2.0000     -10.287608      -279.9400
  11   2.0000     -10.281731      -279.7801
  12   2.0000     -10.278829      -279.7011
  13   2.0000     -10.261523      -279.2302
  14   2.0000      -1.164160       -31.6784
  15   2.0000      -1.159251       -31.5448
  16   2.0000      -1.149030       -31.2667
  17   2.0000      -1.143136       -31.1063
  18   2.0000      -1.120047       -30.4780
  19   2.0000      -1.047087       -28.4927
  20   2.0000      -0.917918       -24.9778
  21   2.0000      -0.883618       -24.0445
  22   2.0000      -0.837711       -22.7953
  23   2.0000      -0.790935       -21.5224
  24   2.0000      -0.788922       -21.4677
  25   2.0000      -0.742222       -20.1969
  26   2.0000      -0.721251       -19.6262
  27   2.0000      -0.670206       -18.2372
  28   2.0000      -0.656501       -17.8643
  29   2.0000      -0.643654       -17.5147
  30   2.0000      -0.632339       -17.2068
  31   2.0000      -0.629340       -17.1252
  32   2.0000      -0.611640       -16.6436
  33   2.0000      -0.578737       -15.7482
  34   2.0000      -0.575644       -15.6641
  35   2.0000      -0.568595       -15.4723
  36   2.0000      -0.557908       -15.1814
  37   2.0000      -0.541909       -14.7461
  38   2.0000      -0.537816       -14.6347
  39   2.0000      -0.517284       -14.0760
  40   2.0000      -0.515177       -14.0187
  41   2.0000      -0.505466       -13.7544
  42   2.0000      -0.495866       -13.4932
  43   2.0000      -0.488612       -13.2958
  44   2.0000      -0.484531       -13.1848
  45   2.0000      -0.466596       -12.6967
  46   2.0000      -0.453712       -12.3461
  47   2.0000      -0.451185       -12.2774
  48   2.0000      -0.441500       -12.0138
  49   2.0000      -0.429348       -11.6832
  50   2.0000      -0.414030       -11.2663
  51   2.0000      -0.391933       -10.6650
  52   2.0000      -0.386896       -10.5280
  53   2.0000      -0.381426       -10.3791
  54   2.0000      -0.358501        -9.7553
  55   2.0000      -0.353279        -9.6132
  56   2.0000      -0.302125        -8.2212
  57   0.0000       0.104979         2.8566
  58   0.0000       0.111997         3.0476
  59   0.0000       0.122944         3.3455
  60   0.0000       0.131503         3.5784
  61   0.0000       0.137311         3.7364

MULLIKEN ATOMIC CHARGES
-----------------------
   0 N :   -0.120252
   1 C :   -0.000637
   2 C :   -0.152559
   3 C :   -0.159678
   4 H :    0.101709
   5 H :    0.122643
   6 C :   -0.022831
   7 H :    0.129178
   8 C :   -0.103366
   9 H :    0.113518
  10 C :   -0.100751
  11 H :    0.104885
  12 O :   -0.455153
  13 H :    0.091227
  14 C :   -0.063981
  15 O :   -0.467524
  16 H :    0.133868
  17 H :    0.080172
  18 C :    0.009697
  19 H :    0.106098
  20 H :    0.106710
  21 O :   -0.497225
  22 H :    0.112841
  23 O :   -0.499226
  24 H :    0.084820
  25 H :    0.093945
  26 H :    0.111316
  27 O :   -0.450846
  28 H :    0.321578
  29 H :    0.308373
  30 H :    0.309420
  31 H :    0.326899
  32 H :    0.325132
Sum of atomic charges:   -0.0000000

LOEWDIN ATOMIC CHARGES
----------------------
   0 N :    0.143458
   1 C :   -0.340574
   2 C :   -0.285480
   3 C :   -0.288829
   4 H :    0.135480
   5 H :    0.134379
   6 C :   -0.342169
   7 H :    0.148767
   8 C :   -0.360954
   9 H :    0.127311
  10 C :   -0.308098
  11 H :    0.122712
  12 O :   -0.026443
  13 H :    0.114905
  14 C :   -0.322336
  15 O :   -0.030367
  16 H :    0.128168
  17 H :    0.121443
  18 C :   -0.313622
  19 H :    0.129923
  20 H :    0.118526
  21 O :   -0.029220
  22 H :    0.119654
  23 O :   -0.036414
  24 H :    0.114674
  25 H :    0.108150
  26 H :    0.120432
  27 O :   -0.037688
  28 H :    0.171250
  29 H :    0.166325
  30 H :    0.168354
  31 H :    0.162388
  32 H :    0.165892

  Mayer bond orders larger than 0.100000
B(  0-N ,  1-C ) :   0.9937 B(  0-N ,  2-C ) :   0.8762 B(  0-N ,  3-C ) :   0.9696
B(  1-C , 10-C ) :   0.9638 B(  1-C , 14-C ) :   0.9136 B(  1-C , 18-C ) :   0.9709
B(  2-C ,  4-H ) :   0.9733 B(  2-C ,  5-H ) :   0.9700 B(  2-C ,  6-C ) :   0.9591
B(  3-C ,  7-H ) :   0.9539 B(  3-C ,  8-C ) :   0.9527 B(  3-C ,  9-H ) :   0.9719
B(  6-C , 22-H ) :   0.9788 B(  6-C , 23-O ) :   0.9783 B(  6-C , 24-H ) :   0.9643
B(  8-C , 25-H ) :   0.9935 B(  8-C , 26-H ) :   0.9693 B(  8-C , 27-O ) :   1.0596
B( 10-C , 11-H ) :   0.9710 B( 10-C , 12-O ) :   1.0904 B( 10-C , 13-H ) :   0.9541
B( 12-O , 30-H ) :   0.8979 B( 14-C , 15-O ) :   1.0142 B( 14-C , 16-H ) :   0.9937
B( 14-C , 17-H ) :   0.9704 B( 15-O , 32-H ) :   0.8504 B( 18-C , 19-H ) :   0.9762
B( 18-C , 20-H ) :   0.9689 B( 18-C , 21-O ) :   0.9718 B( 21-O , 31-H ) :   0.8466
B( 23-O , 28-H ) :   0.8926 B( 27-O , 29-H ) :   0.9002

Dispersion correction           -0.006070730
FINAL SINGLE POINT ENERGY      -747.235969242873

DIPOLE MOMENT
-------------
                                X             Y             Z
Electronic contribution:     -1.46809       0.56484       4.11140
Nuclear contribution   :      2.79056      -0.75809      -5.46804
                        -----------------------------------------
Total Dipole Moment    :      1.32247      -0.19324      -1.35664
                        -----------------------------------------
Magnitude (a.u.)       :      1.90440
Magnitude (Debye)      :      4.84060

Dispersion correction in the Hessian             ... Starting D4

VIBRATIONAL FREQUENCIES
-----------------------

Scaling factor for frequencies =  1.000000000  (already applied!)

   0:         0.00 cm**-1
   1:         0.00 cm**-1
   2:         0.00 cm**-1
   3:         0.00 cm**-1
   4:         0.00 cm**-1
   5:         0.00 cm**-1
   6:        43.38 cm**-1
   7:        57.89 cm**-1
   8:        65.82 cm**-1
   9:        97.53 cm**-1
  10:       147.19 cm**-1
  11:       159.81 cm**-1
  12:       164.18 cm**-1
  13:       172.54 cm**-1
  14:       177.83 cm**-1
  15:       182.77 cm**-1
  16:       215.76 cm**-1
  17:       239.62 cm**-1
  18:       250.32 cm**-1
  19:       255.74 cm**-1
  20:       274.56 cm**-1
  21:       296.81 cm**-1
  22:       321.39 cm**-1
  23:       337.14 cm**-1
  24:       388.88 cm**-1
  25:       402.65 cm**-1
  26:       415.72 cm**-1
  27:       456.16 cm**-1
  28:       491.53 cm**-1
  29:       515.44 cm**-1
  30:       545.31 cm**-1
  31:       553.03 cm**-1
  32:       650.64 cm**-1
  33:       675.94 cm**-1
  34:       733.92 cm**-1
  35:       851.97 cm**-1
  36:       881.18 cm**-1
  37:       901.23 cm**-1
  38:       941.14 cm**-1
  39:       954.66 cm**-1
  40:       958.11 cm**-1
  41:      1003.11 cm**-1
  42:      1048.26 cm**-1
  43:      1069.14 cm**-1
  44:      1082.90 cm**-1
  45:      1110.14 cm**-1
  46:      1124.59 cm**-1
  47:      1129.86 cm**-1
  48:      1137.27 cm**-1
  49:      1142.90 cm**-1
  50:      1157.95 cm**-1
  51:      1175.58 cm**-1
  52:      1199.59 cm**-1
  53:      1219.19 cm**-1
  54:      1238.72 cm**-1
  55:      1243.53 cm**-1
  56:      1261.14 cm**-1
  57:      1264.26 cm**-1
  58:      1293.92 cm**-1
  59:      1302.42 cm**-1
  60:      1323.82 cm**-1
  61:      1343.70 cm**-1
  62:      1361.05 cm**-1
  63:      1370.10 cm**-1
  64:      1397.45 cm**-1
  65:      1403.48 cm**-1
  66:      1424.47 cm**-1
  67:      1440.74 cm**-1
  68:      1455.15 cm**-1
  69:      1463.34 cm**-1
  70:      1469.17 cm**-1
  71:      1475.68 cm**-1
  72:      1480.67 cm**-1
  73:      1486.46 cm**-1
  74:      1498.90 cm**-1
  75:      1506.44 cm**-1
  76:      1515.36 cm**-1
  77:      1528.11 cm**-1
  78:      1530.00 cm**-1
  79:      1546.58 cm**-1
  80:      2996.67 cm**-1
  81:      3008.35 cm**-1
  82:      3010.91 cm**-1
  83:      3019.76 cm**-1
  84:      3023.63 cm**-1
  85:      3039.15 cm**-1
  86:      3050.53 cm**-1
  87:      3058.17 cm**-1
  88:      3065.44 cm**-1
  89:      3109.15 cm**-1
  90:      3118.95 cm**-1
  91:      3123.29 cm**-1
  92:      3137.89 cm**-1
  93:      3181.95 cm**-1
  94:      3708.41 cm**-1
  95:      3750.79 cm**-1
  96:      3896.36 cm**-1
  97:      3898.85 cm**-1
  98:      3901.83 cm**-1

IR SPECTRUM
-----------

 Mode   freq       eps      Int      T**2         TX        TY        TZ
       cm**-1   L/(mol*cm) km/mol    a.u.
----------------------------------------------------------------------------
  6:     43.38   0.000311    1.57  0.002235  ( 0.015977 -0.015882 -0.041568)
  7:     57.89   0.000663    3.35  0.003577  ( 0.037145  0.010667 -0.045644)
  8:     65.82   0.001754    8.87  0.008318  ( 0.069354  0.057479 -0.014283)
  9:     97.53   0.001722    8.70  0.005508  ( 0.073963  0.002667 -0.005543)
 10:    147.19   0.000802    4.05  0.001700  (-0.011014 -0.016661 -0.036078)
 11:    159.81   0.002350   11.88  0.004589  ( 0.000509 -0.064735  0.019959)
 12:    164.18   0.014903   75.32  0.028327  (-0.156767 -0.036952  0.048848)
 13:    172.54   0.006235   31.51  0.011278  (-0.096889  0.015022  0.040797)
 14:    177.83   0.001167    5.90  0.002047  ( 0.038219  0.023114 -0.007221)
 15:    182.77   0.021138  106.82  0.036093  ( 0.179014  0.047000 -0.042869)
 16:    215.76   0.000323    1.63  0.000467  ( 0.004626  0.007439  0.019755)
 17:    239.62   0.000416    2.10  0.000542  (-0.020456 -0.005350  0.009719)
 18:    250.32   0.000778    3.93  0.000970  (-0.019962  0.019538 -0.013785)
 19:    255.74   0.000329    1.66  0.000401  ( 0.007861 -0.005097 -0.017706)
 20:    274.56   0.019919  100.66  0.022640  ( 0.103256  0.093172 -0.057419)
 21:    296.81   0.000597    3.02  0.000627  (-0.019677 -0.011508  0.010386)
 22:    321.39   0.000186    0.94  0.000181  ( 0.004940  0.008957 -0.008739)
 23:    337.14   0.000373    1.88  0.000345  ( 0.002685  0.010060  0.015386)
 24:    388.88   0.000288    1.45  0.000231  (-0.002760 -0.005052  0.014056)
 25:    402.65   0.000308    1.56  0.000239  (-0.008237 -0.010524 -0.007760)
 26:    415.72   0.000657    3.32  0.000493  (-0.012565 -0.003809 -0.017916)
 27:    456.16   0.001956    9.88  0.001338  ( 0.015457 -0.009699  0.031704)
 28:    491.53   0.019289   97.48  0.012246  ( 0.103622 -0.000505 -0.038835)
 29:    515.44   0.002794   14.12  0.001692  (-0.034829 -0.020665  0.007184)
 30:    545.31   0.002507   12.67  0.001435  (-0.036906 -0.004290  0.007364)
 31:    553.03   0.001036    5.24  0.000585  ( 0.019248 -0.014044  0.004134)
 32:    650.64   0.006687   33.80  0.003207  (-0.001431  0.050847  0.024899)
 33:    675.94   0.024065  121.62  0.011110  ( 0.017270  0.075776  0.071205)
 34:    733.92   0.002808   14.19  0.001194  (-0.002678  0.022243 -0.026304)
 35:    851.97   0.001633    8.25  0.000598  ( 0.013790 -0.014907  0.013631)
 36:    881.18   0.000584    2.95  0.000207  ( 0.002741  0.013679  0.003468)
 37:    901.23   0.007664   38.73  0.002654  ( 0.014544 -0.001379  0.049401)
 38:    941.14   0.001804    9.11  0.000598  (-0.008479 -0.011222 -0.020005)
 39:    954.66   0.001437    7.26  0.000470  (-0.019841  0.006570 -0.005726)
 40:    958.11   0.002756   13.93  0.000898  (-0.010494 -0.005989  0.027419)
 41:   1003.11   0.000027    0.13  0.000008  (-0.001633  0.002354  0.000279)
 42:   1048.26   0.008488   42.89  0.002527  ( 0.005030  0.021779  0.045023)
 43:   1069.14   0.003518   17.78  0.001027  (-0.028928  0.013109 -0.004261)
 44:   1082.90   0.005819   29.41  0.001677  (-0.025196 -0.024613 -0.020884)
 45:   1110.14   0.003720   18.80  0.001046  (-0.004078  0.022677  0.022689)
 46:   1124.59   0.011712   59.19  0.003250  ( 0.012782 -0.052186 -0.019056)
 47:   1129.86   0.000308    1.56  0.000085  (-0.005186 -0.007623 -0.000219)
 48:   1137.27   0.033952  171.58  0.009316  ( 0.004948 -0.024922  0.093118)
 49:   1142.90   0.003232   16.34  0.000883  ( 0.001159 -0.029296  0.004797)
 50:   1157.95   0.002983   15.07  0.000804  (-0.010895 -0.000693 -0.026166)
 51:   1175.58   0.008666   43.79  0.002300  (-0.017201  0.019309  0.040394)
 52:   1199.59   0.018966   95.85  0.004934  ( 0.002386 -0.059309 -0.037559)
 53:   1219.19   0.005774   29.18  0.001478  (-0.030822 -0.005638 -0.022274)
 54:   1238.72   0.003330   16.83  0.000839  ( 0.005090  0.014485  0.024557)
 55:   1243.53   0.003448   17.42  0.000865  (-0.015091 -0.009011  0.023586)
 56:   1261.14   0.000172    0.87  0.000043  (-0.000040 -0.000654 -0.006489)
 57:   1264.26   0.004757   24.04  0.001174  ( 0.008777 -0.007334 -0.032301)
 58:   1293.92   0.007423   37.51  0.001790  ( 0.023294  0.035224  0.002619)
 59:   1302.42   0.001195    6.04  0.000286  ( 0.007286  0.013620  0.006909)
 60:   1323.82   0.003736   18.88  0.000881  (-0.019974 -0.009779 -0.019647)
 61:   1343.70   0.003052   15.43  0.000709  ( 0.003573 -0.024889  0.008757)
 62:   1361.05   0.002053   10.37  0.000471  ( 0.018898  0.003911  0.009910)
 63:   1370.10   0.003179   16.07  0.000724  ( 0.015861 -0.000059 -0.021739)
 64:   1397.45   0.002788   14.09  0.000623  ( 0.012794 -0.021267  0.002558)
 65:   1403.48   0.001670    8.44  0.000371  ( 0.010001  0.016226  0.002817)
 66:   1424.47   0.001846    9.33  0.000404  ( 0.015927  0.010827 -0.005788)
 67:   1440.74   0.000821    4.15  0.000178  ( 0.005605 -0.011564 -0.003557)
 68:   1455.15   0.001319    6.66  0.000283  (-0.006969 -0.009850  0.011715)
 69:   1463.34   0.002826   14.28  0.000603  ( 0.004443 -0.007989 -0.022783)
 70:   1469.17   0.005954   30.09  0.001265  ( 0.006393  0.023506 -0.025908)
 71:   1475.68   0.000920    4.65  0.000195  ( 0.009436  0.010017  0.002267)
 72:   1480.67   0.012059   60.94  0.002541  ( 0.016294  0.002492 -0.047642)
 73:   1486.46   0.000294    1.49  0.000062  ( 0.001196 -0.004385 -0.006413)
 74:   1498.90   0.002779   14.04  0.000578  ( 0.009507  0.000374  0.022090)
 75:   1506.44   0.001224    6.19  0.000254  (-0.011496 -0.010902  0.001601)
 76:   1515.36   0.001555    7.86  0.000320  (-0.001079  0.017501 -0.003561)
 77:   1528.11   0.002064   10.43  0.000421  (-0.009453  0.015405 -0.009738)
 78:   1530.00   0.001935    9.78  0.000395  ( 0.003875 -0.009701  0.016896)
 79:   1546.58   0.000770    3.89  0.000155  ( 0.012296 -0.001763 -0.001030)
 80:   2996.67   0.006942   35.08  0.000723  (-0.009933 -0.019233 -0.015949)
 81:   3008.35   0.008751   44.23  0.000908  (-0.026186  0.012633 -0.007906)
 82:   3010.91   0.000129    0.65  0.000013  (-0.001689 -0.001533 -0.002866)
 83:   3019.76   0.017040   86.12  0.001761  (-0.014826  0.022748  0.031995)
 84:   3023.63   0.008966   45.31  0.000925  ( 0.006941 -0.028391  0.008437)
 85:   3039.15   0.021446  108.38  0.002202  (-0.037710  0.010414  0.025916)
 86:   3050.53   0.009472   47.87  0.000969  ( 0.002192  0.024744 -0.018759)
 87:   3058.17   0.009918   50.12  0.001012  ( 0.030006  0.000053 -0.010568)
 88:   3065.44   0.011579   58.52  0.001179  (-0.018328 -0.028998 -0.001409)
 89:   3109.15   0.009723   49.13  0.000976  ( 0.026520 -0.016507  0.000238)
 90:   3118.95   0.002048   10.35  0.000205  (-0.009802 -0.009380  0.004566)
 91:   3123.29   0.004443   22.46  0.000444  (-0.004052 -0.016784 -0.012076)
 92:   3137.89   0.004747   23.99  0.000472  (-0.002731 -0.020079  0.007838)
 93:   3181.95   0.001277    6.45  0.000125  (-0.005857 -0.009324  0.002002)
 94:   3708.41   0.061629  311.45  0.005186  (-0.070256  0.015008 -0.004988)
 95:   3750.79   0.022538  113.90  0.001875  ( 0.017641  0.033069  0.021688)
 96:   3896.36   0.010359   52.35  0.000830  (-0.017324 -0.004055 -0.022651)
 97:   3898.85   0.008874   44.84  0.000710  (-0.008722  0.002400 -0.025068)
 98:   3901.83   0.008474   42.82  0.000678  (-0.009313  0.018711 -0.015520)

--------------------------
THERMOCHEMISTRY AT 298.15K
--------------------------

Temperature         ... 298.15 K
Pressure            ... 1.00 atm
Total Mass          ... 209.24 AMU

Throughout the following assumptions are being made:
  (1) The electronic state is orbitally nondegenerate
  (2) There are no thermally accessible electronically excited states
  (3) Hindered rotations indicated by low frequency modes are not
      treated as such but are treated as vibrations and this may
      cause some error
  (4) All equations used are the standard statistical mechanics
      equations for an ideal gas
  (5) All vibrations are strictly harmonic

freq.      43.38  E(vib)   ...       0.53
freq.      57.89  E(vib)   ...       0.51
freq.      65.82  E(vib)   ...       0.50
freq.      97.53  E(vib)   ...       0.46
freq.     147.19  E(vib)   ...       0.41
freq.     159.81  E(vib)   ...       0.39
freq.     164.18  E(vib)   ...       0.39
freq.     172.54  E(vib)   ...       0.38
freq.     177.83  E(vib)   ...       0.37
freq.     182.77  E(vib)   ...       0.37
freq.     215.76  E(vib)   ...       0.34
freq.     239.62  E(vib)   ...       0.31
freq.     250.32  E(vib)   ...       0.30
freq.     255.74  E(vib)   ...       0.30
freq.     274.56  E(vib)   ...       0.28
freq.     296.81  E(vib)   ...       0.27
freq.     321.39  E(vib)   ...       0.25
freq.     337.14  E(vib)   ...       0.24
freq.     388.88  E(vib)   ...       0.20
freq.     402.65  E(vib)   ...       0.19
freq.     415.72  E(vib)   ...       0.18
freq.     456.16  E(vib)   ...       0.16
freq.     491.53  E(vib)   ...       0.14
freq.     515.44  E(vib)   ...       0.13
freq.     545.31  E(vib)   ...       0.12
freq.     553.03  E(vib)   ...       0.12
freq.     650.64  E(vib)   ...       0.08
freq.     675.94  E(vib)   ...       0.08
freq.     733.92  E(vib)   ...       0.06
freq.     851.97  E(vib)   ...       0.04
freq.     881.18  E(vib)   ...       0.04
freq.     901.23  E(vib)   ...       0.03
freq.     941.14  E(vib)   ...       0.03
freq.     954.66  E(vib)   ...       0.03
freq.     958.11  E(vib)   ...       0.03
freq.    1003.11  E(vib)   ...       0.02
freq.    1048.26  E(vib)   ...       0.02
freq.    1069.14  E(vib)   ...       0.02
freq.    1082.90  E(vib)   ...       0.02
freq.    1110.14  E(vib)   ...       0.02
freq.    1124.59  E(vib)   ...       0.01
freq.    1129.86  E(vib)   ...       0.01
freq.    1137.27  E(vib)   ...       0.01
freq.    1142.90  E(vib)   ...       0.01
freq.    1157.95  E(vib)   ...       0.01
freq.    1175.58  E(vib)   ...       0.01
freq.    1199.59  E(vib)   ...       0.01
freq.    1219.19  E(vib)   ...       0.01
freq.    1238.72  E(vib)   ...       0.01
freq.    1243.53  E(vib)   ...       0.01
freq.    1261.14  E(vib)   ...       0.01
freq.    1264.26  E(vib)   ...       0.01
freq.    1293.92  E(vib)   ...       0.01
freq.    1302.42  E(vib)   ...       0.01
freq.    1323.82  E(vib)   ...       0.01
freq.    1343.70  E(vib)   ...       0.01
freq.    1361.05  E(vib)   ...       0.01
freq.    1370.10  E(vib)   ...       0.01
freq.    1397.45  E(vib)   ...       0.00
freq.    1403.48  E(vib)   ...       0.00
freq.    1424.47  E(vib)   ...       0.00
freq.    1440.74  E(vib)   ...       0.00
freq.    1455.15  E(vib)   ...       0.00
freq.    1463.34  E(vib)   ...       0.00
freq.    1469.17  E(vib)   ...       0.00
freq.    1475.68  E(vib)   ...       0.00
freq.    1480.67  E(vib)   ...       0.00
freq.    1486.46  E(vib)   ...       0.00
freq.    1498.90  E(vib)   ...       0.00
freq.    1506.44  E(vib)   ...       0.00
freq.    1515.36  E(vib)   ...       0.00
freq.    1528.11  E(vib)   ...       0.00
freq.    1530.00  E(vib)   ...       0.00
freq.    1546.58  E(vib)   ...       0.00
freq.    2996.67  E(vib)   ...       0.00
freq.    3008.35  E(vib)   ...       0.00
freq.    3010.91  E(vib)   ...       0.00
freq.    3019.76  E(vib)   ...       0.00
freq.    3023.63  E(vib)   ...       0.00
freq.    3039.15  E(vib)   ...       0.00
freq.    3050.53  E(vib)   ...       0.00
freq.    3058.17  E(vib)   ...       0.00
freq.    3065.44  E(vib)   ...       0.00
freq.    3109.15  E(vib)   ...       0.00
freq.    3118.95  E(vib)   ...       0.00
freq.    3123.29  E(vib)   ...       0.00
freq.    3137.89  E(vib)   ...       0.00
freq.    3181.95  E(vib)   ...       0.00
freq.    3708.41  E(vib)   ...       0.00
freq.    3750.79  E(vib)   ...       0.00
freq.    3896.36  E(vib)   ...       0.00
freq.    3898.85  E(vib)   ...       0.00
freq.    3901.83  E(vib)   ...       0.00

------------
INNER ENERGY
------------

The inner energy is: U= E(el) + E(ZPE) + E(vib) + E(rot) + E(trans)
    E(el)   - is the total energy from the electronic structure calculation
              = E(kin-el) + E(nuc-el) + E(el-el) + E(nuc-nuc)
    E(ZPE)  - the the zero temperature vibrational energy from the frequency calculation
    E(vib)  - the the finite temperature correction to E(ZPE) due to population
              of excited vibrational states
    E(rot)  - is the rotational thermal energy
    E(trans)- is the translational thermal energy

Summary of contributions to the inner energy U:
Electronic energy                ...   -747.23596924 Eh
Zero point energy                ...      0.29184017 Eh     183.13 kcal/mol
Thermal vibrational correction   ...      0.01371750 Eh       8.61 kcal/mol
Thermal rotational correction    ...      0.00141627 Eh       0.89 kcal/mol
Thermal translational correction ...      0.00141627 Eh       0.89 kcal/mol
-----------------------------------------------------------------------
Total thermal energy                   -746.92757902 Eh

Summary of corrections to the electronic energy:
(perhaps to be used in another calculation)
Total thermal correction                  0.01655005 Eh      10.39 kcal/mol
Non-thermal (ZPE) correction              0.29184017 Eh     183.13 kcal/mol
-----------------------------------------------------------------------
Total correction                          0.30839022 Eh     193.52 kcal/mol

--------
ENTHALPY
--------

The enthalpy is H = U + kB*T
                kB is Boltzmann's constant
Total free energy                 ...   -746.92757902 Eh
Thermal Enthalpy correction       ...      0.00094421 Eh       0.59 kcal/mol
-----------------------------------------------------------------------
Total Enthalpy                    ...   -746.92663482 Eh

Note: Only C1 symmetry has been detected, increase convergence thresholds
      if your molecule has a higher symmetry. Symmetry factor of 1.0 is
      used for the rotational entropy correction.

Note: Rotational entropy computed according to Herzberg
Infrared and Raman Spectra, Chapter V,1, Van Nostrand Reinhold, 1945

Rotational constants in cm-1:     0.024510     0.019280     0.017466

                             ****ORCA TERMINATED NORMALLY****
TOTAL RUN TIME: 0 days 3 hours 28 minutes 7 seconds 772 msec
