                         Program Version 5.0.4 -  RELEASE  -
|  1> ! WB97X OPT FREQ def2-TZVP RIJCOSX CPCM(WATER) D4
|  2> %MAXCORE 6500
|  3> %PAL NPROCS 8 END
|  4> * xyz 2 1
|  5>   Ca     -8.672037     -1.234518     -3.151266
|  6>   N      -8.994892     -1.188535     -5.591974
|  7>   C     -10.176170     -0.267569     -5.701736
|  8>   C      -7.772114     -0.630205     -6.206336
|  9>   C      -9.259942     -2.574778     -6.038451
| 10>   H      -7.796686      0.452062     -6.118895
| 11>   H      -7.728393     -0.866726     -7.275274
| 12>   C      -6.473498     -1.100226     -5.573861
| 13>   H     -10.311102     -2.799136     -5.892720
| 14>   C      -8.474404     -3.642322     -5.296600
| 15>   H      -9.056496     -2.683621     -7.108219
| 16>   C     -10.606485      0.048548     -7.140198
| 17>   H     -11.322534      0.878987     -7.099391
| 18>   O     -11.182126     -1.086090     -7.748213
| 19>   H      -9.731625      0.400287     -7.697152
| 20>   C     -11.377351     -0.855425     -4.950376
| 21>   O     -10.970358     -1.236079     -3.628811
| 22>   H     -11.798583     -1.717470     -5.462746
| 23>   H     -12.150380     -0.087371     -4.890202
| 24>   C      -9.837105      1.104284     -5.079027
| 25>   H     -10.771930      1.624721     -4.866641
| 26>   H      -9.260565      1.720221     -5.771189
| 27>   O      -9.092967      0.935287     -3.869396
| 28>   H      -6.225741     -2.129225     -5.829736
| 29>   O      -6.568884     -0.977190     -4.142119
| 30>   H      -5.670611     -0.456219     -5.935930
| 31>   H      -7.413861     -3.646838     -5.544117
| 32>   H      -8.890881     -4.612952     -5.569993
| 33>   O      -8.624855     -3.443921     -3.878217
| 34>   H      -5.706115     -1.151847     -3.750745
| 35>   H      -8.356684     -4.243173     -3.413358
| 36>   H     -11.412892     -0.859587     -8.653442
| 37>   H      -8.854583      1.797363     -3.513156
| 38>   H     -11.709608     -1.649439     -3.171332
| 39> *
| 40>
| 41>                          ****END OF INPUT****
 Total Charge           Charge          ....    2
 Multiplicity           Mult            ....    1
 Number of Electrons    NEL             ....  132
Dispersion correction           -0.006532540
FINAL SINGLE POINT ENERGY     -1424.744667995266
Dispersion correction            ... Starting D4
Dispersion correction           -0.006532980
FINAL SINGLE POINT ENERGY     -1424.744696090195
Dispersion correction            ... Starting D4
Dispersion correction           -0.006532832
FINAL SINGLE POINT ENERGY     -1424.744731821116
Dispersion correction            ... Starting D4
FINAL SINGLE POINT ENERGY     -1424.744745105412
FINAL SINGLE POINT ENERGY     -1424.744785790170
FINAL SINGLE POINT ENERGY     -1424.744812370888
FINAL SINGLE POINT ENERGY     -1424.744826343707
FINAL SINGLE POINT ENERGY     -1424.744839677977
FINAL SINGLE POINT ENERGY     -1424.744845263550
FINAL SINGLE POINT ENERGY     -1424.744849453670
FINAL SINGLE POINT ENERGY     -1424.744849004687
FINAL SINGLE POINT ENERGY     -1424.744840471468
FINAL SINGLE POINT ENERGY     -1424.744850959593
FINAL SINGLE POINT ENERGY     -1424.744855979215
FINAL SINGLE POINT ENERGY     -1424.744854340581
Dispersion correction           -0.006537763
FINAL SINGLE POINT ENERGY     -1424.744853970080
Dispersion correction            ... Starting D4
Dispersion correction           -0.006537902
FINAL SINGLE POINT ENERGY     -1424.744851502764
Dispersion correction            ... Starting D4
                    ***********************HURRAY********************

CARTESIAN COORDINATES (ANGSTROEM)
---------------------------------
  Ca    -8.648889   -1.211404   -3.153264
  N     -8.970981   -1.166888   -5.599966
  C    -10.173307   -0.274752   -5.698577
  C     -7.761671   -0.567679   -6.201146
  C     -9.183013   -2.554974   -6.073444
  H     -7.769651    0.503530   -6.022688
  H     -7.742625   -0.719852   -7.285929
  C     -6.464398   -1.111058   -5.633118
  H    -10.242887   -2.782718   -6.059636
  C     -8.479757   -3.615893   -5.243722
  H     -8.855246   -2.660404   -7.112271
  C    -10.620208    0.033523   -7.132639
  H    -11.352387    0.848546   -7.092957
  O    -11.183926   -1.116892   -7.729613
  H     -9.757035    0.390793   -7.703418
  C    -11.354755   -0.887096   -4.938338
  O    -10.962258   -1.150546   -3.583819
  H    -11.711056   -1.805563   -5.398245
  H    -12.174428   -0.166082   -4.948491
  C     -9.857915    1.102627   -5.075726
  H    -10.800005    1.595717   -4.832658
  H     -9.317007    1.735739   -5.780980
  O     -9.074311    0.948958   -3.887819
  H     -6.245605   -2.120442   -5.980488
  O     -6.548595   -1.108330   -4.195839
  H     -5.650309   -0.457519   -5.949344
  H     -7.395533   -3.592719   -5.344920
  H     -8.833487   -4.593106   -5.575211
  O     -8.822052   -3.429664   -3.857249
  H     -5.686021   -1.319194   -3.822564
  H     -8.624976   -4.233297   -3.364996
  H    -11.474253   -0.886841   -8.616488
  H     -8.844290    1.814794   -3.535235
  H    -11.669619   -1.620018   -3.130020

 Multiplicity           Mult            ....    1
 Number of Electrons    NEL             ....  132
 Basis Dimension        Dim             ....  584

ORBITAL ENERGIES
----------------

  NO   OCC          E(Eh)            E(eV)
   0   2.0000    -145.305902     -3953.9746
   1   2.0000     -19.246856      -523.7336
   2   2.0000     -19.245069      -523.6850
   3   2.0000     -19.243337      -523.6378
   4   2.0000     -19.242998      -523.6286
   5   2.0000     -19.207226      -522.6552
   6   2.0000     -15.483195      -421.3192
   7   2.0000     -14.437553      -392.8658
   8   2.0000     -12.615493      -343.2850
   9   2.0000     -12.614894      -343.2687
  10   2.0000     -12.614817      -343.2666
  11   2.0000     -10.332884      -281.1721
  12   2.0000     -10.331249      -281.1276
  13   2.0000     -10.326165      -280.9892
  14   2.0000     -10.324589      -280.9464
  15   2.0000     -10.322489      -280.8892
  16   2.0000     -10.316349      -280.7221
  17   2.0000     -10.300788      -280.2987
  18   2.0000     -10.298502      -280.2365
  19   2.0000      -1.911234       -52.0073
  20   2.0000      -1.215839       -33.0847
  21   2.0000      -1.209050       -32.8999
  22   2.0000      -1.206688       -32.8357
  23   2.0000      -1.191328       -32.4177
  24   2.0000      -1.175892       -31.9977
  25   2.0000      -1.167610       -31.7723
  26   2.0000      -1.163475       -31.6598
  27   2.0000      -1.162836       -31.6424
  28   2.0000      -1.086873       -29.5753
  29   2.0000      -0.956492       -26.0275
  30   2.0000      -0.913798       -24.8657
  31   2.0000      -0.869710       -23.6660
  32   2.0000      -0.839505       -22.8441
  33   2.0000      -0.819524       -22.3004
  34   2.0000      -0.769674       -20.9439
  35   2.0000      -0.752275       -20.4704
  36   2.0000      -0.701393       -19.0859
  37   2.0000      -0.680644       -18.5213
  38   2.0000      -0.673494       -18.3267
  39   2.0000      -0.672624       -18.3030
  40   2.0000      -0.666295       -18.1308
  41   2.0000      -0.655134       -17.8271
  42   2.0000      -0.643601       -17.5133
  43   2.0000      -0.613943       -16.7062
  44   2.0000      -0.601256       -16.3610
  45   2.0000      -0.594704       -16.1827
  46   2.0000      -0.586447       -15.9580
  47   2.0000      -0.566219       -15.4076
  48   2.0000      -0.562960       -15.3189
  49   2.0000      -0.555558       -15.1175
  50   2.0000      -0.546022       -14.8580
  51   2.0000      -0.539943       -14.6926
  52   2.0000      -0.532398       -14.4873
  53   2.0000      -0.526629       -14.3303
  54   2.0000      -0.522195       -14.2097
  55   2.0000      -0.492724       -13.4077
  56   2.0000      -0.482843       -13.1388
  57   2.0000      -0.472337       -12.8529
  58   2.0000      -0.469902       -12.7867
  59   2.0000      -0.460636       -12.5346
  60   2.0000      -0.443089       -12.0571
  61   2.0000      -0.434660       -11.8277
  62   2.0000      -0.419915       -11.4265
  63   2.0000      -0.415470       -11.3055
  64   2.0000      -0.397134       -10.8066
  65   2.0000      -0.374521       -10.1912
  66   0.0000       0.039117         1.0644
  67   0.0000       0.070984         1.9316
  68   0.0000       0.071564         1.9474
  69   0.0000       0.082270         2.2387
  70   0.0000       0.114119         3.1053

MULLIKEN ATOMIC CHARGES
-----------------------
   0 Ca:    1.409597
   1 N :   -0.297809
   2 C :    0.188621
   3 C :   -0.167866
   4 C :   -0.148815
   5 H :    0.168465
   6 H :    0.179456
   7 C :   -0.092341
   8 H :    0.149240
   9 C :   -0.047998
  10 H :    0.162535
  11 C :   -0.124583
  12 H :    0.150232
  13 O :   -0.506548
  14 H :    0.153941
  15 C :   -0.097174
  16 O :   -0.559618
  17 H :    0.167622
  18 H :    0.168383
  19 C :   -0.102220
  20 H :    0.171359
  21 H :    0.184759
  22 O :   -0.569793
  23 H :    0.161726
  24 O :   -0.579182
  25 H :    0.167915
  26 H :    0.145972
  27 H :    0.170818
  28 O :   -0.578716
  29 H :    0.403064
  30 H :    0.404015
  31 H :    0.362333
  32 H :    0.402967
  33 H :    0.399642
Sum of atomic charges:    2.0000000

LOEWDIN ATOMIC CHARGES
----------------------
   0 Ca:    0.888852
   1 N :    0.131941
   2 C :   -0.302006
   3 C :   -0.250525
   4 C :   -0.244502
   5 H :    0.158977
   6 H :    0.152535
   7 C :   -0.280935
   8 H :    0.152337
   9 C :   -0.282240
  10 H :    0.153047
  11 C :   -0.286313
  12 H :    0.141891
  13 O :   -0.031307
  14 H :    0.137054
  15 C :   -0.245512
  16 O :    0.012172
  17 H :    0.138310
  18 H :    0.149910
  19 C :   -0.243930
  20 H :    0.151315
  21 H :    0.144719
  22 O :    0.014069
  23 H :    0.133357
  24 O :    0.000860
  25 H :    0.145013
  26 H :    0.134023
  27 H :    0.145534
  28 O :   -0.001663
  29 H :    0.222241
  30 H :    0.221185
  31 H :    0.192788
  32 H :    0.224848
  33 H :    0.221956

  Mayer bond orders larger than 0.100000
B(  0-Ca,  1-N ) :   0.2819 B(  0-Ca, 16-O ) :   0.1910 B(  0-Ca, 22-O ) :   0.1768
B(  0-Ca, 24-O ) :   0.1810 B(  0-Ca, 28-O ) :   0.1920 B(  1-N ,  2-C ) :   0.8255
B(  1-N ,  3-C ) :   0.8794 B(  1-N ,  4-C ) :   0.9017 B(  2-C , 11-C ) :   0.9573
B(  2-C , 15-C ) :   0.9742 B(  2-C , 19-C ) :   0.9468 B(  3-C ,  5-H ) :   0.9587
B(  3-C ,  6-H ) :   0.9620 B(  3-C ,  7-C ) :   0.9780 B(  4-C ,  8-H ) :   0.9647
B(  4-C ,  9-C ) :   0.9778 B(  4-C , 10-H ) :   0.9555 B(  7-C , 23-H ) :   0.9908
B(  7-C , 24-O ) :   0.9209 B(  7-C , 25-H ) :   0.9669 B(  9-C , 26-H ) :   0.9830
B(  9-C , 27-H ) :   0.9636 B(  9-C , 28-O ) :   0.9113 B( 11-C , 12-H ) :   0.9646
B( 11-C , 13-O ) :   1.0587 B( 11-C , 14-H ) :   0.9611 B( 13-O , 31-H ) :   0.8639
B( 15-C , 16-O ) :   0.9171 B( 15-C , 17-H ) :   0.9710 B( 15-C , 18-H ) :   0.9653
B( 16-O , 33-H ) :   0.8394 B( 19-C , 20-H ) :   0.9660 B( 19-C , 21-H ) :   0.9706
B( 19-C , 22-O ) :   0.9315 B( 22-O , 32-H ) :   0.8365 B( 24-O , 29-H ) :   0.8361
B( 28-O , 30-H ) :   0.8369

Dispersion correction           -0.006537952
FINAL SINGLE POINT ENERGY     -1424.744852284057

DIPOLE MOMENT
-------------
                                X             Y             Z
Electronic contribution:      1.84358      -0.64578      15.19871
Nuclear contribution   :     -0.34500       0.71875     -12.46801
                        -----------------------------------------
Total Dipole Moment    :      1.49857       0.07297       2.73070
                        -----------------------------------------
Magnitude (a.u.)       :      3.11573
Magnitude (Debye)      :      7.91956

Dispersion correction in the Hessian             ... Starting D4

VIBRATIONAL FREQUENCIES
-----------------------

Scaling factor for frequencies =  1.000000000  (already applied!)

   0:         0.00 cm**-1
   1:         0.00 cm**-1
   2:         0.00 cm**-1
   3:         0.00 cm**-1
   4:         0.00 cm**-1
   5:         0.00 cm**-1
   6:        59.37 cm**-1
   7:        73.33 cm**-1
   8:       103.01 cm**-1
   9:       115.07 cm**-1
  10:       132.84 cm**-1
  11:       144.17 cm**-1
  12:       150.58 cm**-1
  13:       168.98 cm**-1
  14:       173.02 cm**-1
  15:       212.97 cm**-1
  16:       221.39 cm**-1
  17:       230.26 cm**-1
  18:       246.22 cm**-1
  19:       257.49 cm**-1
  20:       280.44 cm**-1
  21:       284.14 cm**-1
  22:       296.93 cm**-1
  23:       305.07 cm**-1
  24:       316.49 cm**-1
  25:       336.58 cm**-1
  26:       341.80 cm**-1
  27:       367.42 cm**-1
  28:       375.64 cm**-1
  29:       416.73 cm**-1
  30:       434.58 cm**-1
  31:       462.17 cm**-1
  32:       485.07 cm**-1
  33:       529.84 cm**-1
  34:       551.15 cm**-1
  35:       577.38 cm**-1
  36:       655.70 cm**-1
  37:       763.30 cm**-1
  38:       840.25 cm**-1
  39:       871.56 cm**-1
  40:       897.91 cm**-1
  41:       931.92 cm**-1
  42:       936.78 cm**-1
  43:       971.64 cm**-1
  44:      1016.38 cm**-1
  45:      1033.96 cm**-1
  46:      1055.47 cm**-1
  47:      1060.40 cm**-1
  48:      1064.80 cm**-1
  49:      1096.09 cm**-1
  50:      1106.27 cm**-1
  51:      1113.91 cm**-1
  52:      1140.58 cm**-1
  53:      1149.03 cm**-1
  54:      1181.91 cm**-1
  55:      1199.69 cm**-1
  56:      1207.15 cm**-1
  57:      1234.87 cm**-1
  58:      1237.28 cm**-1
  59:      1246.52 cm**-1
  60:      1262.90 cm**-1
  61:      1275.38 cm**-1
  62:      1283.74 cm**-1
  63:      1287.03 cm**-1
  64:      1302.10 cm**-1
  65:      1328.53 cm**-1
  66:      1338.89 cm**-1
  67:      1352.23 cm**-1
  68:      1378.46 cm**-1
  69:      1403.69 cm**-1
  70:      1433.86 cm**-1
  71:      1455.75 cm**-1
  72:      1461.35 cm**-1
  73:      1466.35 cm**-1
  74:      1472.61 cm**-1
  75:      1481.98 cm**-1
  76:      1483.18 cm**-1
  77:      1502.77 cm**-1
  78:      1512.56 cm**-1
  79:      1514.63 cm**-1
  80:      1537.29 cm**-1
  81:      1543.25 cm**-1
  82:      1553.97 cm**-1
  83:      3046.08 cm**-1
  84:      3069.53 cm**-1
  85:      3084.02 cm**-1
  86:      3094.13 cm**-1
  87:      3097.23 cm**-1
  88:      3105.12 cm**-1
  89:      3106.60 cm**-1
  90:      3113.13 cm**-1
  91:      3148.34 cm**-1
  92:      3152.63 cm**-1
  93:      3165.19 cm**-1
  94:      3174.41 cm**-1
  95:      3195.72 cm**-1
  96:      3216.79 cm**-1
  97:      3840.14 cm**-1
  98:      3849.13 cm**-1
  99:      3850.08 cm**-1
 100:      3852.46 cm**-1
 101:      3867.15 cm**-1

IR SPECTRUM
-----------

 Mode   freq       eps      Int      T**2         TX        TY        TZ
       cm**-1   L/(mol*cm) km/mol    a.u.
----------------------------------------------------------------------------
  6:     59.37   0.000315    1.59  0.001656  (-0.031387  0.000735  0.025886)
  7:     73.33   0.000567    2.87  0.002415  (-0.032095  0.021559  0.030326)
  8:    103.01   0.000047    0.24  0.000143  ( 0.005895 -0.009249  0.004726)
  9:    115.07   0.000916    4.63  0.002483  (-0.019407  0.045716  0.004023)
 10:    132.84   0.041003  207.21  0.096324  (-0.286427  0.060414  0.103119)
 11:    144.17   0.003094   15.64  0.006697  (-0.051899 -0.050597  0.037994)
 12:    150.58   0.036585  184.88  0.075821  ( 0.231764 -0.018531 -0.147522)
 13:    168.98   0.006088   30.77  0.011243  (-0.073292  0.002339  0.076592)
 14:    173.02   0.002144   10.84  0.003867  ( 0.026850 -0.021792 -0.051687)
 15:    212.97   0.001379    6.97  0.002021  (-0.039792 -0.017231 -0.011859)
 16:    221.39   0.014694   74.26  0.020712  (-0.007976 -0.056953 -0.131929)
 17:    230.26   0.006705   33.88  0.009087  (-0.064073 -0.067207  0.021556)
 18:    246.22   0.029456  148.86  0.037333  (-0.111648  0.143590  0.065186)
 19:    257.49   0.013628   68.87  0.016517  (-0.016435  0.126537  0.015333)
 20:    280.44   0.011290   57.06  0.012563  (-0.109344 -0.016035  0.018704)
 21:    284.14   0.001901    9.61  0.002088  (-0.031368  0.017823  0.028047)
 22:    296.93   0.038077  192.43  0.040018  (-0.120820 -0.157904 -0.022069)
 23:    305.07   0.011241   56.81  0.011499  (-0.096388  0.044884 -0.013924)
 24:    316.49   0.027553  139.24  0.027168  (-0.060016 -0.152153 -0.020382)
 25:    336.58   0.004883   24.67  0.004527  (-0.062907 -0.023199  0.005607)
 26:    341.80   0.005928   29.96  0.005413  ( 0.019468  0.070887  0.002945)
 27:    367.42   0.008220   41.54  0.006982  ( 0.082971 -0.009871  0.000492)
 28:    375.64   0.008447   42.69  0.007017  (-0.043833  0.071380 -0.000937)
 29:    416.73   0.001491    7.53  0.001116  (-0.020971  0.026009  0.000382)
 30:    434.58   0.001189    6.01  0.000854  ( 0.012693 -0.014708 -0.021831)
 31:    462.17   0.004665   23.57  0.003150  ( 0.026751 -0.021302  0.044502)
 32:    485.07   0.000144    0.73  0.000093  (-0.000988  0.008352  0.004676)
 33:    529.84   0.000316    1.60  0.000186  ( 0.007838  0.002028 -0.010971)
 34:    551.15   0.002077   10.50  0.001176  ( 0.024003  0.023938  0.005194)
 35:    577.38   0.004602   23.26  0.002487  (-0.006714 -0.021548  0.044474)
 36:    655.70   0.015989   80.80  0.007610  ( 0.024136  0.027415  0.079218)
 37:    763.30   0.006592   33.31  0.002695  (-0.006042 -0.012513 -0.050020)
 38:    840.25   0.000804    4.06  0.000299  ( 0.013501 -0.010728 -0.001113)
 39:    871.56   0.000946    4.78  0.000339  ( 0.001743 -0.001551  0.018258)
 40:    897.91   0.022629  114.36  0.007865  ( 0.015774 -0.004175  0.087169)
 41:    931.92   0.005082   25.68  0.001702  ( 0.036663 -0.018539 -0.003726)
 42:    936.78   0.001977    9.99  0.000658  ( 0.008665  0.008150 -0.022737)
 43:    971.64   0.000947    4.79  0.000304  ( 0.001706 -0.012924 -0.011587)
 44:   1016.38   0.000725    3.66  0.000223  ( 0.011840  0.009075  0.000089)
 45:   1033.96   0.037792  190.98  0.011406  ( 0.040724  0.017393  0.097186)
 46:   1055.47   0.007573   38.27  0.002239  (-0.042990  0.019458 -0.003491)
 47:   1060.40   0.005746   29.04  0.001691  ( 0.036762 -0.001254  0.018383)
 48:   1064.80   0.029335  148.25  0.008597  ( 0.022362 -0.035716  0.082592)
 49:   1096.09   0.036278  183.33  0.010328  ( 0.028484 -0.020298 -0.095421)
 50:   1106.27   0.004633   23.41  0.001307  ( 0.000602 -0.022643  0.028174)
 51:   1113.91   0.000362    1.83  0.000101  ( 0.000402  0.009896 -0.001834)
 52:   1140.58   0.005479   27.69  0.001499  (-0.014343  0.034908 -0.008651)
 53:   1149.03   0.018298   92.47  0.004969  (-0.028176 -0.063885  0.009707)
 54:   1181.91   0.005818   29.40  0.001536  (-0.008690  0.024458  0.029369)
 55:   1199.69   0.012512   63.23  0.003255  (-0.027381  0.050020 -0.001677)
 56:   1207.15   0.012685   64.10  0.003279  (-0.038402 -0.036623 -0.021523)
 57:   1234.87   0.004965   25.09  0.001255  (-0.020454 -0.013056 -0.025803)
 58:   1237.28   0.001392    7.04  0.000351  (-0.013355 -0.012898  0.002534)
 59:   1246.52   0.020215  102.16  0.005061  ( 0.025344 -0.016587 -0.064368)
 60:   1262.90   0.004478   22.63  0.001107  (-0.002964 -0.030900  0.011958)
 61:   1275.38   0.008479   42.85  0.002075  (-0.024947 -0.037880 -0.004165)
 62:   1283.74   0.017216   87.00  0.004185  (-0.021965  0.008907 -0.060193)
 63:   1287.03   0.024593  124.29  0.005963  ( 0.038228 -0.004006  0.066975)
 64:   1302.10   0.002678   13.53  0.000642  ( 0.002990 -0.014538 -0.020528)
 65:   1328.53   0.000086    0.44  0.000020  ( 0.001213 -0.000447  0.004313)
 66:   1338.89   0.000811    4.10  0.000189  ( 0.012103  0.005602 -0.003337)
 67:   1352.23   0.003681   18.60  0.000850  ( 0.018440 -0.010988  0.019718)
 68:   1378.46   0.012401   62.67  0.002807  (-0.026100  0.019083  0.041977)
 69:   1403.69   0.001557    7.87  0.000346  (-0.011090 -0.014616  0.003085)
 70:   1433.86   0.001386    7.00  0.000302  (-0.009781  0.004630  0.013583)
 71:   1455.75   0.000925    4.68  0.000198  (-0.004682 -0.012262 -0.005104)
 72:   1461.35   0.001032    5.22  0.000220  ( 0.014445 -0.001049  0.003268)
 73:   1466.35   0.001421    7.18  0.000303  (-0.009454  0.014454  0.002050)
 74:   1472.61   0.000073    0.37  0.000015  ( 0.000574  0.001355  0.003646)
 75:   1481.98   0.001177    5.95  0.000248  (-0.009392  0.007053 -0.010478)
 76:   1483.18   0.001161    5.87  0.000244  (-0.001557 -0.001083 -0.015517)
 77:   1502.77   0.005682   28.72  0.001180  (-0.009247  0.013871 -0.030034)
 78:   1512.56   0.001315    6.65  0.000271  ( 0.002232  0.014595 -0.007301)
 79:   1514.63   0.000754    3.81  0.000155  (-0.002640 -0.002710 -0.011877)
 80:   1537.29   0.004370   22.08  0.000887  ( 0.016047  0.025035  0.001690)
 81:   1543.25   0.005267   26.62  0.001065  (-0.029140  0.014377 -0.003044)
 82:   1553.97   0.002663   13.46  0.000535  ( 0.018414 -0.013375  0.004103)
 83:   3046.08   0.009415   47.58  0.000965  (-0.000387 -0.030989 -0.002030)
 84:   3069.53   0.004744   23.97  0.000482  ( 0.004892  0.007709 -0.019973)
 85:   3084.02   0.003882   19.62  0.000393  (-0.000281  0.011665  0.016021)
 86:   3094.13   0.006795   34.34  0.000685  ( 0.023687 -0.000794 -0.011118)
 87:   3097.23   0.002757   13.93  0.000278  ( 0.003981  0.012380 -0.010424)
 88:   3105.12   0.001229    6.21  0.000123  ( 0.005062  0.005031 -0.008517)
 89:   3106.60   0.008824   44.59  0.000886  ( 0.020767 -0.013840  0.016234)
 90:   3113.13   0.012962   65.50  0.001299  ( 0.020535 -0.016542 -0.024576)
 91:   3148.34   0.004868   24.60  0.000483  ( 0.020527  0.003302 -0.007089)
 92:   3152.63   0.004397   22.22  0.000435  ( 0.008389  0.018772  0.003528)
 93:   3165.19   0.002481   12.54  0.000245  ( 0.015376 -0.001421 -0.002477)
 94:   3174.41   0.003560   17.99  0.000350  ( 0.007711 -0.015293 -0.007523)
 95:   3195.72   0.003456   17.46  0.000337  (-0.002728 -0.017939 -0.002865)
 96:   3216.79   0.002065   10.44  0.000200  (-0.011232 -0.008597  0.000511)
 97:   3840.14   0.042528  214.92  0.003456  ( 0.051308 -0.009072  0.027224)
 98:   3849.13   0.018401   92.99  0.001492  (-0.034202  0.017215 -0.005075)
 99:   3850.08   0.083623  422.60  0.006778  ( 0.026404  0.062981 -0.045981)
100:   3852.46   0.047653  240.82  0.003860  ( 0.014330  0.038304  0.046771)
101:   3867.15   0.024915  125.91  0.002011  ( 0.017846 -0.000270  0.041134)

--------------------------
THERMOCHEMISTRY AT 298.15K
--------------------------

Temperature         ... 298.15 K
Pressure            ... 1.00 atm
Total Mass          ... 249.32 AMU

Throughout the following assumptions are being made:
  (1) The electronic state is orbitally nondegenerate
  (2) There are no thermally accessible electronically excited states
  (3) Hindered rotations indicated by low frequency modes are not
      treated as such but are treated as vibrations and this may
      cause some error
  (4) All equations used are the standard statistical mechanics
      equations for an ideal gas
  (5) All vibrations are strictly harmonic

freq.      59.37  E(vib)   ...       0.51
freq.      73.33  E(vib)   ...       0.49
freq.     103.01  E(vib)   ...       0.46
freq.     115.07  E(vib)   ...       0.44
freq.     132.84  E(vib)   ...       0.42
freq.     144.17  E(vib)   ...       0.41
freq.     150.58  E(vib)   ...       0.40
freq.     168.98  E(vib)   ...       0.38
freq.     173.02  E(vib)   ...       0.38
freq.     212.97  E(vib)   ...       0.34
freq.     221.39  E(vib)   ...       0.33
freq.     230.26  E(vib)   ...       0.32
freq.     246.22  E(vib)   ...       0.31
freq.     257.49  E(vib)   ...       0.30
freq.     280.44  E(vib)   ...       0.28
freq.     284.14  E(vib)   ...       0.28
freq.     296.93  E(vib)   ...       0.27
freq.     305.07  E(vib)   ...       0.26
freq.     316.49  E(vib)   ...       0.25
freq.     336.58  E(vib)   ...       0.24
freq.     341.80  E(vib)   ...       0.23
freq.     367.42  E(vib)   ...       0.21
freq.     375.64  E(vib)   ...       0.21
freq.     416.73  E(vib)   ...       0.18
freq.     434.58  E(vib)   ...       0.17
freq.     462.17  E(vib)   ...       0.16
freq.     485.07  E(vib)   ...       0.15
freq.     529.84  E(vib)   ...       0.13
freq.     551.15  E(vib)   ...       0.12
freq.     577.38  E(vib)   ...       0.11
freq.     655.70  E(vib)   ...       0.08
freq.     763.30  E(vib)   ...       0.06
freq.     840.25  E(vib)   ...       0.04
freq.     871.56  E(vib)   ...       0.04
freq.     897.91  E(vib)   ...       0.03
freq.     931.92  E(vib)   ...       0.03
freq.     936.78  E(vib)   ...       0.03
freq.     971.64  E(vib)   ...       0.03
freq.    1016.38  E(vib)   ...       0.02
freq.    1033.96  E(vib)   ...       0.02
freq.    1055.47  E(vib)   ...       0.02
freq.    1060.40  E(vib)   ...       0.02
freq.    1064.80  E(vib)   ...       0.02
freq.    1096.09  E(vib)   ...       0.02
freq.    1106.27  E(vib)   ...       0.02
freq.    1113.91  E(vib)   ...       0.01
freq.    1140.58  E(vib)   ...       0.01
freq.    1149.03  E(vib)   ...       0.01
freq.    1181.91  E(vib)   ...       0.01
freq.    1199.69  E(vib)   ...       0.01
freq.    1207.15  E(vib)   ...       0.01
freq.    1234.87  E(vib)   ...       0.01
freq.    1237.28  E(vib)   ...       0.01
freq.    1246.52  E(vib)   ...       0.01
freq.    1262.90  E(vib)   ...       0.01
freq.    1275.38  E(vib)   ...       0.01
freq.    1283.74  E(vib)   ...       0.01
freq.    1287.03  E(vib)   ...       0.01
freq.    1302.10  E(vib)   ...       0.01
freq.    1328.53  E(vib)   ...       0.01
freq.    1338.89  E(vib)   ...       0.01
freq.    1352.23  E(vib)   ...       0.01
freq.    1378.46  E(vib)   ...       0.01
freq.    1403.69  E(vib)   ...       0.00
freq.    1433.86  E(vib)   ...       0.00
freq.    1455.75  E(vib)   ...       0.00
freq.    1461.35  E(vib)   ...       0.00
freq.    1466.35  E(vib)   ...       0.00
freq.    1472.61  E(vib)   ...       0.00
freq.    1481.98  E(vib)   ...       0.00
freq.    1483.18  E(vib)   ...       0.00
freq.    1502.77  E(vib)   ...       0.00
freq.    1512.56  E(vib)   ...       0.00
freq.    1514.63  E(vib)   ...       0.00
freq.    1537.29  E(vib)   ...       0.00
freq.    1543.25  E(vib)   ...       0.00
freq.    1553.97  E(vib)   ...       0.00
freq.    3046.08  E(vib)   ...       0.00
freq.    3069.53  E(vib)   ...       0.00
freq.    3084.02  E(vib)   ...       0.00
freq.    3094.13  E(vib)   ...       0.00
freq.    3097.23  E(vib)   ...       0.00
freq.    3105.12  E(vib)   ...       0.00
freq.    3106.60  E(vib)   ...       0.00
freq.    3113.13  E(vib)   ...       0.00
freq.    3148.34  E(vib)   ...       0.00
freq.    3152.63  E(vib)   ...       0.00
freq.    3165.19  E(vib)   ...       0.00
freq.    3174.41  E(vib)   ...       0.00
freq.    3195.72  E(vib)   ...       0.00
freq.    3216.79  E(vib)   ...       0.00
freq.    3840.14  E(vib)   ...       0.00
freq.    3849.13  E(vib)   ...       0.00
freq.    3850.08  E(vib)   ...       0.00
freq.    3852.46  E(vib)   ...       0.00
freq.    3867.15  E(vib)   ...       0.00

------------
INNER ENERGY
------------

The inner energy is: U= E(el) + E(ZPE) + E(vib) + E(rot) + E(trans)
    E(el)   - is the total energy from the electronic structure calculation
              = E(kin-el) + E(nuc-el) + E(el-el) + E(nuc-nuc)
    E(ZPE)  - the the zero temperature vibrational energy from the frequency calculation
    E(vib)  - the the finite temperature correction to E(ZPE) due to population
              of excited vibrational states
    E(rot)  - is the rotational thermal energy
    E(trans)- is the translational thermal energy

Summary of contributions to the inner energy U:
Electronic energy                ...  -1424.74485228 Eh
Zero point energy                ...      0.29462152 Eh     184.88 kcal/mol
Thermal vibrational correction   ...      0.01501828 Eh       9.42 kcal/mol
Thermal rotational correction    ...      0.00141627 Eh       0.89 kcal/mol
Thermal translational correction ...      0.00141627 Eh       0.89 kcal/mol
-----------------------------------------------------------------------
Total thermal energy                  -1424.43237994 Eh

Summary of corrections to the electronic energy:
(perhaps to be used in another calculation)
Total thermal correction                  0.01785083 Eh      11.20 kcal/mol
Non-thermal (ZPE) correction              0.29462152 Eh     184.88 kcal/mol
-----------------------------------------------------------------------
Total correction                          0.31247234 Eh     196.08 kcal/mol

--------
ENTHALPY
--------

The enthalpy is H = U + kB*T
                kB is Boltzmann's constant
Total free energy                 ...  -1424.43237994 Eh
Thermal Enthalpy correction       ...      0.00094421 Eh       0.59 kcal/mol
-----------------------------------------------------------------------
Total Enthalpy                    ...  -1424.43143573 Eh

Note: Only C1 symmetry has been detected, increase convergence thresholds
      if your molecule has a higher symmetry. Symmetry factor of 1.0 is
      used for the rotational entropy correction.

Rotational constants in cm-1:     0.022282     0.016317     0.015535

                             ****ORCA TERMINATED NORMALLY****
TOTAL RUN TIME: 0 days 1 hours 37 minutes 24 seconds 190 msec
