 Gaussian 16, Revision C.01,
 Gaussian 16:  ES64L-G16RevC.01  3-Jul-2019

 ----------------------------------------------------------------------
 #p opt freq M06/6-311+g(d,p) scrf=(iefpcm,solvent=water) geom=connecti
 vity
 ----------------------------------------------------------------------

 -------------------
 Title Card Required
 -------------------
 Symbolic Z-matrix:
 Charge =  0 Multiplicity = 1

 SCF Done:  E(RM06) =  -744.934037395     A.U. after   17 cycles
 SCF Done:  E(RM06) =  -744.943110229     A.U. after   15 cycles
 SCF Done:  E(RM06) =  -744.945241406     A.U. after   15 cycles
 SCF Done:  E(RM06) =  -744.945891701     A.U. after   15 cycles
 SCF Done:  E(RM06) =  -744.946006210     A.U. after   14 cycles
 SCF Done:  E(RM06) =  -744.946123349     A.U. after   12 cycles
 SCF Done:  E(RM06) =  -744.946139180     A.U. after   12 cycles
 SCF Done:  E(RM06) =  -744.946145995     A.U. after   12 cycles
 SCF Done:  E(RM06) =  -744.946146738     A.U. after   10 cycles
 Optimization completed.
    -- Stationary point found.
 Normal termination of Gaussian 16 at Tue Dec  3 13:10:35 2019.

 ----------------------------------------------------------------------
 #P Geom=AllCheck Guess=TCheck SCRF=Check GenChk RM06/6-311+G(d,p) Freq
 ----------------------------------------------------------------------

 Structure from the checkpoint file:  "ox2.chk"
 -------------------
 Title Card Required
 -------------------
 Charge =  0 Multiplicity = 1

                         Standard orientation:
 ---------------------------------------------------------------------
 Center     Atomic      Atomic             Coordinates (Angstroms)
 Number     Number       Type             X           Y           Z
 ---------------------------------------------------------------------
      1          6           0        2.307671    1.957168   -0.104070
      2          6           0        3.366707    1.061642    0.298964
      3          6           0        3.186047   -0.269650    0.233982
      4          6           0        1.934958   -0.777818   -0.388853
      5          6           0        0.764490    0.140502   -0.315681
      6          6           0        1.048351    1.541224   -0.407536
      7          8           0        0.017507    2.373662   -0.712944
      8          1           0        0.305494    3.290811   -0.643819
      9          8           0        4.110876   -1.180185    0.576289
     10          7           0        1.486730   -2.104945   -0.045500
     11          1           0        2.195437   -0.844954   -1.468878
     12          6           0        0.201787   -1.998397    0.041332
     13          6           0       -0.332942   -0.651585   -0.112821
     14          1           0       -0.421369   -2.869070    0.243447
     15          6           0       -1.758239   -0.339278    0.012291
     16          1           0        2.518163    3.024508   -0.104387
     17          6           0       -2.712027   -1.226512   -0.497606
     18          6           0       -4.068379   -0.967967   -0.361414
     19          1           0       -2.387305   -2.119853   -1.024653
     20          6           0       -2.203182    0.807751    0.676528
     21          6           0       -3.558577    1.063313    0.814583
     22          1           0       -1.475825    1.498664    1.089652
     23          6           0       -4.496894    0.178622    0.294859
     24          1           0       -4.793048   -1.664260   -0.772283
     25          1           0       -5.557788    0.381313    0.404279
     26          1           0       -3.886284    1.956888    1.337339
     27          1           0        3.686434   -2.052082    0.581060
     28          1           0        4.303301    1.470730    0.662647
 ---------------------------------------------------------------------

 SCF Done:  E(RM06) =  -744.946146738     A.U. after    2 cycles

 The electronic state is 1-A.
 Alpha  occ. eigenvalues --  -19.25767 -19.24790 -14.39391 -10.31758 -10.31186
 Alpha  occ. eigenvalues --  -10.29070 -10.29026 -10.26998 -10.26194 -10.26132
 Alpha  occ. eigenvalues --  -10.25287 -10.24776 -10.24624 -10.24592 -10.24542
 Alpha  occ. eigenvalues --  -10.24509 -10.23901  -1.11364  -1.10069  -0.98773
 Alpha  occ. eigenvalues --   -0.88532  -0.86616  -0.81876  -0.77374  -0.76780
 Alpha  occ. eigenvalues --   -0.76242  -0.73245  -0.66350  -0.63925  -0.63174
 Alpha  occ. eigenvalues --   -0.61128  -0.59971  -0.58364  -0.55413  -0.53830
 Alpha  occ. eigenvalues --   -0.52064  -0.50273  -0.49153  -0.47171  -0.46722
 Alpha  occ. eigenvalues --   -0.46552  -0.44710  -0.44191  -0.43303  -0.42963
 Alpha  occ. eigenvalues --   -0.42406  -0.40913  -0.39919  -0.38912  -0.38110
 Alpha  occ. eigenvalues --   -0.36423  -0.36011  -0.35051  -0.32576  -0.31141
 Alpha  occ. eigenvalues --   -0.29706  -0.27640  -0.26116  -0.21031
 Alpha virt. eigenvalues --   -0.07811  -0.03187  -0.02322  -0.02118  -0.02023
 Alpha virt. eigenvalues --   -0.01731  -0.01213  -0.00993  -0.00761  -0.00199
 Alpha virt. eigenvalues --    0.00444   0.00611   0.01137   0.01506   0.02375

 Mulliken charges:
               1
     1  C   -0.051742
     2  C   -0.129979
     3  C   -0.264964
     4  C   -0.500971
     5  C    1.399983
     6  C   -1.124118
     7  O   -0.274056
     8  H    0.315450
     9  O   -0.274309
    10  N   -0.093496
    11  H    0.314712
    12  C   -0.429453
    13  C    0.389473
    14  H    0.177839
    15  C    0.750097
    16  H    0.176215
    17  C   -0.283141
    18  C   -0.440370
    19  H    0.183213
    20  C   -0.367128
    21  C   -0.444544
    22  H    0.187976
    23  C   -0.263086
    24  H    0.183239
    25  H    0.183158
    26  H    0.182237
    27  H    0.318490
    28  H    0.179276
 Sum of Mulliken charges =  -0.00000

 Dipole moment (field-independent basis, Debye):
    X=             -1.2906    Y=              2.5103    Z=             -0.4293  Tot=              2.8551
 Quadrupole moment (field-independent basis, Debye-Ang):
   XX=            -98.7447   YY=            -83.8395   ZZ=           -101.5771
   XY=              8.1287   XZ=             -2.8804   YZ=              3.3879

  Exact polarizability:     388.519      24.956     270.653       4.444      14.478     152.918
 Approx polarizability:     393.159      24.600     308.474       5.997      18.107     171.482

                      1                      2                      3
                      A                      A                      A
 Frequencies --     45.6993                50.3088                88.2914
 Red. masses --      6.0235                 4.2568                 4.9694
 Frc consts  --      0.0074                 0.0063                 0.0228
 IR Inten    --      0.7386                 0.2496                 0.2147

                      4                      5                      6
                      A                      A                      A
 Frequencies --    133.7333               152.4863               205.2944
 Red. masses --      6.7225                 5.4633                 4.3111
 Frc consts  --      0.0708                 0.0748                 0.1071
 IR Inten    --      0.3545                10.2354                 7.6018

                      7                      8                      9
                      A                      A                      A
 Frequencies --    223.6983               271.7259               304.3381
 Red. masses --      5.5042                 4.5440                 5.6811
 Frc consts  --      0.1623                 0.1977                 0.3100
 IR Inten    --      1.4554                12.0322                 5.6206

                     10                     11                     12
                      A                      A                      A
 Frequencies --    324.6627               344.7772               383.7986
 Red. masses --      4.2767                 1.2646                 5.0532
 Frc consts  --      0.2656                 0.0886                 0.4386
 IR Inten    --     19.1243               134.0749                 7.6418

                     13                     14                     15
                      A                      A                      A
 Frequencies --    410.6393               414.2553               444.5696
 Red. masses --      2.9064                 4.2683                 7.1100
 Frc consts  --      0.2888                 0.4316                 0.8279
 IR Inten    --      0.3129                 7.8662                 2.6696

                     16                     17                     18
                      A                      A                      A
 Frequencies --    472.7533               495.0387               512.6826
 Red. masses --      1.2007                 2.6974                 3.2348
 Frc consts  --      0.1581                 0.3895                 0.5009
 IR Inten    --    186.0426                32.2892                25.5501

                     19                     20                     21
                      A                      A                      A
 Frequencies --    539.1282               571.5558               619.4328
 Red. masses --      6.6855                 3.7363                 4.7331
 Frc consts  --      1.1449                 0.7191                 1.0700
 IR Inten    --      6.7708                 8.9975                15.5819

                     22                     23                     24
                      A                      A                      A
 Frequencies --    623.5525               664.5325               684.5444
 Red. masses --      5.4294                 5.4065                 4.4170
 Frc consts  --      1.2438                 1.4067                 1.2195
 IR Inten    --      6.6576                12.1384                43.4071

                     25                     26                     27
                      A                      A                      A
 Frequencies --    698.0813               701.0032               755.5166
 Red. masses --      4.1111                 1.8667                 5.2072
 Frc consts  --      1.1804                 0.5405                 1.7512
 IR Inten    --     47.7878                63.3056                82.1969

                     28                     29                     30
                      A                      A                      A
 Frequencies --    777.8865               815.7461               827.2152
 Red. masses --      2.4318                 3.0201                 1.8474
 Frc consts  --      0.8670                 1.1841                 0.7448
 IR Inten    --     69.3449                41.5432                52.3675

                     31                     32                     33
                      A                      A                      A
 Frequencies --    849.2677               885.6262               916.0660
 Red. masses --      1.2484                 1.4742                 5.7798
 Frc consts  --      0.5305                 0.6813                 2.8577
 IR Inten    --      0.6123                 3.6940               112.3362

                     34                     35                     36
                      A                      A                      A
 Frequencies --    926.4637               974.0886               984.9771
 Red. masses --      1.4154                 1.5242                 2.8132
 Frc consts  --      0.7158                 0.8521                 1.6081
 IR Inten    --      5.5147                14.8522                42.1069

                     37                     38                     39
                      A                      A                      A
 Frequencies --    987.3532              1003.0453              1007.6123
 Red. masses --      1.6345                 1.2952                 5.5695
 Frc consts  --      0.9388                 0.7678                 3.3316
 IR Inten    --     11.4574                 0.2075                 1.2589

                     40                     41                     42
                      A                      A                      A
 Frequencies --   1026.7163              1051.6591              1083.4151
 Red. masses --      2.1905                 1.8921                 1.5839
 Frc consts  --      1.3605                 1.2329                 1.0954
 IR Inten    --     12.1769                12.5172                54.7319

                     43                     44                     45
                      A                      A                      A
 Frequencies --   1095.4520              1113.2789              1130.3476
 Red. masses --      1.4435                 1.5778                 2.1317
 Frc consts  --      1.0206                 1.1521                 1.6047
 IR Inten    --     22.8410                 5.4299                46.5735

                     46                     47                     48
                      A                      A                      A
 Frequencies --   1151.8301              1175.7107              1182.4680
 Red. masses --      1.0778                 1.5972                 1.1341
 Frc consts  --      0.8425                 1.3008                 0.9343
 IR Inten    --      0.1285                14.1476                12.7430

                     49                     50                     51
                      A                      A                      A
 Frequencies --   1185.9475              1224.0855              1250.8618
 Red. masses --      1.4886                 1.5800                 3.0349
 Frc consts  --      1.2335                 1.3949                 2.7978
 IR Inten    --    306.6025               108.9745                68.1011

                     52                     53                     54
                      A                      A                      A
 Frequencies --   1277.8004              1297.7342              1310.7870
 Red. masses --      2.9389                 1.9058                 1.8711
 Frc consts  --      2.8273                 1.8910                 1.8941
 IR Inten    --    145.0756               217.0493                30.2322

                     55                     56                     57
                      A                      A                      A
 Frequencies --   1333.7090              1344.6750              1350.5190
 Red. masses --      2.9765                 3.8809                 1.9487
 Frc consts  --      3.1194                 4.1344                 2.0941
 IR Inten    --     42.5204                18.1062                90.4360

                     58                     59                     60
                      A                      A                      A
 Frequencies --   1417.5262              1457.9383              1463.9351
 Red. masses --      3.1429                 3.0313                 2.5231
 Frc consts  --      3.7209                 3.7963                 3.1859
 IR Inten    --    666.6590                11.6433                 1.5158

                     61                     62                     63
                      A                      A                      A
 Frequencies --   1509.6962              1533.5380              1606.2304
 Red. masses --      3.9787                 4.4186                 7.8125
 Frc consts  --      5.3428                 6.1225                11.8756
 IR Inten    --     58.5798                56.2977                 8.8222

                     64                     65                     66
                      A                      A                      A
 Frequencies --   1621.9544              1646.6935              1654.8740
 Red. masses --      6.2687                 7.4924                 6.5562
 Frc consts  --      9.7165                11.9701                10.5788
 IR Inten    --     13.2608               175.3281                62.7385

                     67                     68                     69
                      A                      A                      A
 Frequencies --   1710.8465              2903.5585              3128.2141
 Red. masses --      7.1910                 1.0769                 1.0935
 Frc consts  --     12.4011                 5.3491                 6.3047
 IR Inten    --    159.6442                 3.5481                38.2968

                     70                     71                     72
                      A                      A                      A
 Frequencies --   3141.7370              3146.6216              3152.8245
 Red. masses --      1.0898                 1.0863                 1.0872
 Frc consts  --      6.3381                 6.3372                 6.3675
 IR Inten    --     27.0565                 9.3205                 0.0824

                     73                     74                     75
                      A                      A                      A
 Frequencies --   3161.9872              3172.7534              3176.0329
 Red. masses --      1.0924                 1.0959                 1.0926
 Frc consts  --      6.4348                 6.4997                 6.4938
 IR Inten    --     33.2587                43.4919                23.5266

                     76                     77                     78
                      A                      A                      A
 Frequencies --   3179.6036              3751.0519              3857.6240
 Red. masses --      1.0963                 1.0661                 1.0661
 Frc consts  --      6.5304                 8.8382                 9.3476
 IR Inten    --     12.1933               213.6620               166.6841

 - Thermochemistry -
 -------------------
 Temperature   298.150 Kelvin.  Pressure   1.00000 Atm.
 Atom     1 has atomic number  6 and mass  12.00000

 Molecular mass:   225.07898 amu.
 Principal axes and moments of inertia in atomic units:
                           1         2         3
     Eigenvalues --  1689.782625841.427247190.33908
           X            0.99998   0.00666  -0.00101
           Y           -0.00664   0.99986   0.01506
           Z            0.00112  -0.01506   0.99989
 This molecule is an asymmetric top.
 Rotational symmetry number  1.
 Warning -- assumption of classical behavior for rotation
           may cause significant error
 Rotational temperatures (Kelvin)      0.05126     0.01483     0.01205
 Rotational constants (GHZ):           1.06803     0.30896     0.25100
 Zero-point vibrational energy     568666.9 (Joules/Mol)
                                  135.91466 (Kcal/Mol)
 Warning -- explicit consideration of  21 degrees of freedom as
           vibrations may cause significant error
 Vibrational temperatures:     65.75    72.38   127.03   192.41   219.39
          (Kelvin)            295.37   321.85   390.95   437.87   467.12
                              496.06   552.20   590.82   596.02   639.64
                              680.19   712.25   737.64   775.69   822.34
                              891.23   897.15   956.11   984.91  1004.38
                             1008.59  1087.02  1119.21  1173.68  1190.18
                             1221.91  1274.22  1318.01  1332.97  1401.50
                             1417.16  1420.58  1443.16  1449.73  1477.22
                             1513.10  1558.79  1576.11  1601.76  1626.32
                             1657.23  1691.59  1701.31  1706.31  1761.19
                             1799.71  1838.47  1867.15  1885.93  1918.91
                             1934.69  1943.10  2039.50  2097.65  2106.28
                             2172.12  2206.42  2311.01  2333.63  2369.22
                             2380.99  2461.53  4177.57  4500.80  4520.26
                             4527.29  4536.21  4549.39  4564.88  4569.60
                             4574.74  5396.93  5550.26

 Zero-point correction=                           0.216594 (Hartree/Particle)
 Thermal correction to Energy=                    0.230000
 Thermal correction to Enthalpy=                  0.230944
 Thermal correction to Gibbs Free Energy=         0.176317
 Sum of electronic and zero-point Energies=           -744.729553
 Sum of electronic and thermal Energies=              -744.716146
 Sum of electronic and thermal Enthalpies=            -744.715202
 Sum of electronic and thermal Free Energies=         -744.769830

                     E (Thermal)             CV                S
                      KCal/Mol        Cal/Mol-Kelvin    Cal/Mol-Kelvin
 Total                  144.327             54.258            114.974
 Electronic               0.000              0.000              0.000
 Translational            0.889              2.981             42.136
 Rotational               0.889              2.981             32.629
 Vibrational            142.550             48.296             40.209
 Vibration     1          0.595              1.979              4.995
 Vibration     2          0.595              1.977              4.805
 Vibration     3          0.601              1.957              3.698
 Vibration     4          0.613              1.920              2.892
 Vibration     5          0.619              1.900              2.641
 Vibration     6          0.640              1.832              2.085
 Vibration     7          0.649              1.805              1.929
 Vibration     8          0.675              1.725              1.585
 Vibration     9          0.695              1.665              1.393
 Vibration    10          0.709              1.626              1.287
 Vibration    11          0.723              1.586              1.190
 Vibration    12          0.753              1.505              1.024
 Vibration    13          0.775              1.447              0.924
 Vibration    14          0.778              1.439              0.912
 Vibration    15          0.804              1.373              0.812
 Vibration    16          0.830              1.310              0.730
 Vibration    17          0.851              1.261              0.671
 Vibration    18          0.868              1.222              0.627
 Vibration    19          0.894              1.164              0.567
 Vibration    20          0.928              1.093              0.501
 Vibration    21          0.979              0.991              0.417

                           ! Non-Optimized Parameters !
 Normal termination of Gaussian 16 at Tue Dec  3 15:42:44 2019.
