                         Program Version 6.1.0  -  RELEASE   -
|  1> ! B3LYP def-TZVP opt FREQ TightSCF DEFGRID2
|  2>
|  3> %pal
|  4>   nprocs 16
|  5> end
|  6>
|  7>
|  8> %scf
|  9>   MaxIter 500
| 10>   ConvForced true
| 11>   # Break spin symmetry for heavy metal system
| 12>   guess hcore
| 13> end
| 14>
| 15> %geom
| 16>   MaxIter 200
| 17> end
| 18>
| 19>
| 20> * xyz 0 3
| 21> O 0.0 0.0 0.0
| 22> O 0.0 0.0 1.207
| 23> *
| 24>
| 25>                          ****END OF INPUT****
 Total Charge           Charge          ....    0
 Multiplicity           Mult            ....    3
 Number of Electrons    NEL             ....   16
FINAL SINGLE POINT ENERGY      -150.322169403905
FINAL SINGLE POINT ENERGY      -150.322172100705
FINAL SINGLE POINT ENERGY      -150.322176175476
                    ***********************HURRAY********************

CARTESIAN COORDINATES (ANGSTROEM)
---------------------------------
  O      0.000000    0.000000   -0.000665
  O      0.000000    0.000000    1.207665

 Multiplicity           Mult            ....    3
 Number of Electrons    NEL             ....   16
 Basis Dimension        Dim             ....   38

ORBITAL ENERGIES
----------------
                 SPIN UP ORBITALS
  NO   OCC          E(Eh)            E(eV)
   0   1.0000     -19.290955      -524.9336
   1   1.0000     -19.290790      -524.9291
   2   1.0000      -1.315646       -35.8005
   3   1.0000      -0.843764       -22.9600
   4   1.0000      -0.571207       -15.5433
   5   1.0000      -0.571207       -15.5433
   6   1.0000      -0.557917       -15.1817
   7   1.0000      -0.316774        -8.6199
   8   1.0000      -0.316774        -8.6199
   9   0.0000       0.158251         4.3062
  10   0.0000       0.309902         8.4329
  11   0.0000       0.360186         9.8012
  12   0.0000       0.360186         9.8012
  13   0.0000       0.406588        11.0638

                 SPIN DOWN ORBITALS
  NO   OCC          E(Eh)            E(eV)
   0   1.0000     -19.260255      -524.0982
   1   1.0000     -19.259954      -524.0900
   2   1.0000      -1.257803       -34.2266
   3   1.0000      -0.754439       -20.5293
   4   1.0000      -0.517522       -14.0825
   5   1.0000      -0.467379       -12.7180
   6   1.0000      -0.467379       -12.7180
   7   0.0000      -0.122840        -3.3426
   8   0.0000      -0.122840        -3.3426
   9   0.0000       0.191984         5.2242
  10   0.0000       0.324404         8.8275
  11   0.0000       0.386280        10.5112

MULLIKEN ATOMIC CHARGES AND SPIN POPULATIONS
--------------------------------------------
   0 O :    0.000000    1.000000
   1 O :   -0.000000    1.000000
Sum of atomic charges         :   -0.0000000

LOEWDIN ATOMIC CHARGES AND SPIN POPULATIONS
-------------------------------------------
   0 O :   -0.000000    1.000000
   1 O :    0.000000    1.000000

  Mayer bond orders larger than 0.100000
B(  0-O ,  1-O ) :   1.7400

FINAL SINGLE POINT ENERGY      -150.322172479575

DIPOLE MOMENT
-------------

Method             : SCF
Type of density    : Electron Density
Multiplicity       :   3
Irrep              :   0
Energy             :  -150.3221724795751015 Eh
Basis              : AO
                                X                 Y                 Z
Electronic contribution:     -0.000000000       0.000000000       0.000000002
Nuclear contribution   :      0.000000000       0.000000000      -0.000000000
                        -----------------------------------------
Total Dipole Moment    :     -0.000000000       0.000000000       0.000000002
                        -----------------------------------------
Magnitude (a.u.)       :      0.000000002
Magnitude (Debye)      :      0.000000005

VIBRATIONAL FREQUENCIES
-----------------------

Scaling factor for frequencies =  1.000000000  (already applied!)

     0:       0.00 cm**-1
     1:       0.00 cm**-1
     2:       0.00 cm**-1
     3:       0.00 cm**-1
     4:       0.00 cm**-1
     5:    1617.56 cm**-1

IR SPECTRUM
-----------

 Mode   freq       eps      Int      T**2         TX        TY        TZ
       cm**-1   L/(mol*cm) km/mol    a.u.
----------------------------------------------------------------------------
  5:   1617.56   0.000000    0.00  0.000000  (-0.000000 -0.000000  0.000000)

--------------------------
THERMOCHEMISTRY AT 298.15K
--------------------------

Temperature         ...   298.15 K
Pressure            ...     1.00 atm
Total Mass          ...    32.00 AMU
Quasi RRHO          ...     True
Cut-Off Frequency   ...     1.00 cm^-1
The molecule is recognized as being linear

Throughout the following assumptions are being made:
  (1) The electronic state is orbitally nondegenerate
      but the spin degeneracy is treated
  (2) There are no thermally accessible electronically excited states
  (3) Hindered rotations indicated by low frequency modes are not
      treated as such but are treated as vibrations and this may
      cause some error
  (4) All equations used are the standard statistical mechanics
      equations for an ideal gas
  (5) All vibrations are strictly harmonic

freq.    1617.56  E(vib)   ...       0.00

------------
INNER ENERGY
------------

The inner energy is: U= E(el) + E(ZPE) + E(vib) + E(rot) + E(trans)
    E(el)   - is the total energy from the electronic structure calculation
              = E(kin-el) + E(nuc-el) + E(el-el) + E(nuc-nuc)
    E(ZPE)  - the the zero temperature vibrational energy from the frequency calculation
    E(vib)  - the the finite temperature correction to E(ZPE) due to population
              of excited vibrational states
    E(rot)  - is the rotational thermal energy
    E(trans)- is the translational thermal energy

Summary of contributions to the inner energy U:
Electronic energy                ...   -150.32217248 Eh
Zero point energy                ...      0.00368507 Eh       2.31 kcal/mol
Thermal vibrational correction   ...      0.00000300 Eh       0.00 kcal/mol
Thermal rotational correction    ...      0.00094418 Eh       0.59 kcal/mol
Thermal translational correction ...      0.00141627 Eh       0.89 kcal/mol
-----------------------------------------------------------------------
Total thermal energy                   -150.31612395 Eh

Summary of corrections to the electronic energy:
(perhaps to be used in another calculation)
Total thermal correction                  0.00236346 Eh       1.48 kcal/mol
Non-thermal (ZPE) correction              0.00368507 Eh       2.31 kcal/mol
-----------------------------------------------------------------------
Total correction                          0.00604853 Eh       3.80 kcal/mol

--------
ENTHALPY
--------

The enthalpy is H = U + kB*T
                kB is Boltzmann's constant
Total thermal energy              ...   -150.31612395 Eh
Thermal Enthalpy correction       ...      0.00094421 Eh       0.59 kcal/mol
-----------------------------------------------------------------------
Total Enthalpy                    ...   -150.31517974 Eh

Note: Rotational entropy computed according to Herzberg
Infrared and Raman Spectra, Chapter V,1, Van Nostrand Reinhold, 1945
Point Group:  D(inf)h, Symmetry Number:   2
Rotational constants in cm-1:     0.000000     1.443322     1.443322

Vibrational entropy computed according to the QRRHO of S. Grimme
Chem.Eur.J. 2012 18 9955 using a reference frequency of 100.0 cm-1

-------
ENTROPY
-------

The entropy contributions are T*S = T*(S(el)+S(vib)+S(rot)+S(trans))
     S(el)   - electronic entropy
     S(vib)  - vibrational entropy
     S(rot)  - rotational entropy
     S(trans)- translational entropy
The entropies will be listed as multiplied by the temperature to get
units of energy

Electronic entropy                ...      0.00103729 Eh      0.65 kcal/mol
Vibrational entropy               ...      0.00000339 Eh      0.00 kcal/mol
Rotational entropy                ...      0.00497934 Eh      3.12 kcal/mol
Translational entropy             ...      0.01725741 Eh     10.83 kcal/mol
-----------------------------------------------------------------------
Final entropy term                ...      0.02327742 Eh     14.61 kcal/mol

-------------------
GIBBS FREE ENERGY
-------------------

The Gibbs free energy is G = H - T*S

Total enthalpy                    ...   -150.31517974 Eh
Total entropy correction          ...     -0.02327742 Eh    -14.61 kcal/mol
-----------------------------------------------------------------------
Final Gibbs free energy         ...   -150.33845717 Eh

For completeness - the Gibbs free energy minus the electronic energy
G-E(el)                           ...     -0.01628469 Eh    -10.22 kcal/mol

                             ****ORCA TERMINATED NORMALLY****
TOTAL RUN TIME: 0 days 0 hours 1 minutes 18 seconds 590 msec
