                         Program Version 6.1.0  -  RELEASE   -
|  1> ! XTB GOAT
|  2>
|  3> %pal
|  4>   nprocs 16
|  5> end
|  6>
|  7>
|  8> * xyz 0 1
|  9> C      0.000000    0.000000    0.000000
| 10> C      1.530000    0.000000    0.000000
| 11> C      2.880000    0.000000    0.000000
| 12> Cl     4.410000    0.000000    0.000000
| 13> Cl    -1.470000    0.000000    0.000000
| 14> H      0.180000    0.930000    0.000000
| 15> H      0.180000   -0.930000    0.000000
| 16> H      1.710000    0.930000    0.000000
| 17> H      1.710000   -0.930000    0.000000
| 18> H      2.690000    0.930000    0.000000
| 19> H      2.690000   -0.930000    0.000000
| 20> *
| 21>
| 22>                          ****END OF INPUT****
FINAL SINGLE POINT ENERGY       -17.604609167120
FINAL SINGLE POINT ENERGY       -17.828392366900
FINAL SINGLE POINT ENERGY       -17.978607508040
FINAL SINGLE POINT ENERGY       -18.105153894830
FINAL SINGLE POINT ENERGY       -18.147284917000
FINAL SINGLE POINT ENERGY       -18.160178441260
FINAL SINGLE POINT ENERGY       -18.163197301770
FINAL SINGLE POINT ENERGY       -18.164282403280
FINAL SINGLE POINT ENERGY       -18.174468116180
FINAL SINGLE POINT ENERGY       -18.190508619680
FINAL SINGLE POINT ENERGY       -18.578405753220
FINAL SINGLE POINT ENERGY       -18.578537080850
FINAL SINGLE POINT ENERGY       -18.578596783010
FINAL SINGLE POINT ENERGY       -18.578636791900
FINAL SINGLE POINT ENERGY       -18.578697693400
FINAL SINGLE POINT ENERGY       -18.578774726830
FINAL SINGLE POINT ENERGY       -18.578870465000
FINAL SINGLE POINT ENERGY       -18.578975875460
FINAL SINGLE POINT ENERGY       -18.579081929330

CARTESIAN COORDINATES (ANGSTROEM)
---------------------------------
  C     0.214930   -0.194476   -0.064528
  C     1.474071    0.367074    0.582755
  C     2.772359   -0.210595    0.034401
  Cl    3.207563    0.506878   -1.540758
  Cl   -0.019666    0.401607   -1.733586
  H    -0.665380    0.120902    0.497640
  H     0.246327   -1.282307   -0.122274
  H     1.481017    1.453751    0.488559
  H     1.422117    0.118539    1.650279
  H     3.597930    0.006166    0.713046
  H     2.686879   -1.287537   -0.114224

FINAL SINGLE POINT ENERGY       -18.579154778280

DIPOLE MOMENT
-------------
                                X             Y             Z
Total Dipole Moment    :     -0.09000      -0.49300       1.39100
                        -----------------------------------------
Magnitude (a.u.)       :      1.47852
Magnitude (Debye)      :      3.75811

                             ****ORCA TERMINATED NORMALLY****
TOTAL RUN TIME: 0 days 0 hours 1 minutes 14 seconds 780 msec
