                         Program Version 5.0.4 -  RELEASE  -
|  1> # avogadro generated ORCA input file
|  2> # Basic Mode
|  3> #
|  4> ! OPT NUMFREQ ma-def2-TZVP  M06L DEFGRID1 RIJONX
|  5>
|  6> %geom
|  7> Calc_Hess true
|  8> NumHess true
|  9> Recalc_Hess 3
| 10> end
| 11> %PAL NPROCS 4 END
| 12>
| 13> * xyz 0 1
| 14>   Cl       -2.97141        2.47765        0.00000
| 15>   Cl       -0.88753        2.60882        0.00000
| 16> *
| 17>
| 18>
| 19>                          ****END OF INPUT****
 Total Charge           Charge          ....    0
 Multiplicity           Mult            ....    1
 Number of Electrons    NEL             ....   34
FINAL SINGLE POINT ENERGY      -920.371408063310
FINAL SINGLE POINT ENERGY      -920.375268927444
FINAL SINGLE POINT ENERGY      -920.375645319148
FINAL SINGLE POINT ENERGY      -920.375690069305
FINAL SINGLE POINT ENERGY      -920.375690332752
                    ***********************HURRAY********************

CARTESIAN COORDINATES (ANGSTROEM)
---------------------------------
  Cl    -2.914677    2.481221    0.000000
  Cl    -0.944263    2.605249    0.000000

 Multiplicity           Mult            ....    1
 Number of Electrons    NEL             ....   34
 Basis Dimension        Dim             ....   82

ORBITAL ENERGIES
----------------

  NO   OCC          E(Eh)            E(eV)
   0   2.0000    -101.227898     -2754.5511
   1   2.0000    -101.227892     -2754.5510
   2   2.0000      -9.456681      -257.3294
   3   2.0000      -9.456658      -257.3287
   4   2.0000      -7.170087      -195.1080
   5   2.0000      -7.169926      -195.1036
   6   2.0000      -7.153775      -194.6641
   7   2.0000      -7.153763      -194.6638
   8   2.0000      -7.153761      -194.6637
   9   2.0000      -7.153749      -194.6634
  10   2.0000      -0.904532       -24.6136
  11   2.0000      -0.732087       -19.9211
  12   2.0000      -0.453808       -12.3487
  13   2.0000      -0.379520       -10.3273
  14   2.0000      -0.379392       -10.3238
  15   2.0000      -0.274485        -7.4691
  16   2.0000      -0.274452        -7.4682
  17   0.0000      -0.141413        -3.8480
  18   0.0000       0.047181         1.2838
  19   0.0000       0.060605         1.6491
  20   0.0000       0.065335         1.7779
  21   0.0000       0.065364         1.7786

MULLIKEN ATOMIC CHARGES
-----------------------
   0 Cl:    0.000000
   1 Cl:   -0.000000
Sum of atomic charges:    0.0000000

LOEWDIN ATOMIC CHARGES
----------------------
   0 Cl:   -0.000000
   1 Cl:    0.000000

  Mayer bond orders larger than 0.100000
B(  0-Cl,  1-Cl) :   1.1100

FINAL SINGLE POINT ENERGY      -920.375690332503

DIPOLE MOMENT
-------------
                                X             Y             Z
Electronic contribution:      0.00000       0.00000       0.00000
Nuclear contribution   :     -0.00000       0.00000       0.00000
                        -----------------------------------------
Total Dipole Moment    :      0.00000       0.00000       0.00000
                        -----------------------------------------
Magnitude (a.u.)       :      0.00000
Magnitude (Debye)      :      0.00000

VIBRATIONAL FREQUENCIES
-----------------------

Scaling factor for frequencies =  1.000000000 (already applied!)

   0:         0.00 cm**-1
   1:         0.00 cm**-1
   2:         0.00 cm**-1
   3:         0.00 cm**-1
   4:         0.00 cm**-1
   5:       585.76 cm**-1

IR SPECTRUM
-----------

 Mode   freq       eps      Int      T**2         TX        TY        TZ
       cm**-1   L/(mol*cm) km/mol    a.u.
----------------------------------------------------------------------------
  5:    585.76   0.000000    0.00  0.000000  ( 0.000000  0.000000 -0.000000)

--------------------------
THERMOCHEMISTRY AT 298.15K
--------------------------

Temperature         ... 298.15 K
Pressure            ... 1.00 atm
Total Mass          ... 70.91 AMU
The molecule is recognized as being linear

Throughout the following assumptions are being made:
  (1) The electronic state is orbitally nondegenerate
  (2) There are no thermally accessible electronically excited states
  (3) Hindered rotations indicated by low frequency modes are not
      treated as such but are treated as vibrations and this may
      cause some error
  (4) All equations used are the standard statistical mechanics
      equations for an ideal gas
  (5) All vibrations are strictly harmonic

freq.     585.76  E(vib)   ...       0.11

------------
INNER ENERGY
------------

The inner energy is: U= E(el) + E(ZPE) + E(vib) + E(rot) + E(trans)
    E(el)   - is the total energy from the electronic structure calculation
              = E(kin-el) + E(nuc-el) + E(el-el) + E(nuc-nuc)
    E(ZPE)  - the the zero temperature vibrational energy from the frequency calculation
    E(vib)  - the the finite temperature correction to E(ZPE) due to population
              of excited vibrational states
    E(rot)  - is the rotational thermal energy
    E(trans)- is the translational thermal energy

Summary of contributions to the inner energy U:
Electronic energy                ...   -920.37569033 Eh
Zero point energy                ...      0.00133447 Eh       0.84 kcal/mol
Thermal vibrational correction   ...      0.00016798 Eh       0.11 kcal/mol
Thermal rotational correction    ...      0.00094418 Eh       0.59 kcal/mol
Thermal translational correction ...      0.00141627 Eh       0.89 kcal/mol
-----------------------------------------------------------------------
Total thermal energy                   -920.37182743 Eh

Summary of corrections to the electronic energy:
(perhaps to be used in another calculation)
Total thermal correction                  0.00252843 Eh       1.59 kcal/mol
Non-thermal (ZPE) correction              0.00133447 Eh       0.84 kcal/mol
-----------------------------------------------------------------------
Total correction                          0.00386290 Eh       2.42 kcal/mol

--------
ENTHALPY
--------

The enthalpy is H = U + kB*T
                kB is Boltzmann's constant
Total free energy                 ...   -920.37182743 Eh
Thermal Enthalpy correction       ...      0.00094421 Eh       0.59 kcal/mol
-----------------------------------------------------------------------
Total Enthalpy                    ...   -920.37088322 Eh

Note: Rotational entropy computed according to Herzberg
Infrared and Raman Spectra, Chapter V,1, Van Nostrand Reinhold, 1945
Point Group:  Dinfh, Symmetry Number:   2
Rotational constants in cm-1:     0.000000     0.243973     0.243973

Vibrational entropy computed according to the QRRHO of S. Grimme
Chem.Eur.J. 2012 18 9955

-------
ENTROPY
-------

The entropy contributions are T*S = T*(S(el)+S(vib)+S(rot)+S(trans))
     S(el)   - electronic entropy
     S(vib)  - vibrational entropy
     S(rot)  - rotational entropy
     S(trans)- translational entropy
The entropies will be listed as multiplied by the temperature to get
units of energy

Electronic entropy                ...      0.00000000 Eh      0.00 kcal/mol
Vibrational entropy               ...      0.00022585 Eh      0.14 kcal/mol
Rotational entropy                ...      0.00665776 Eh      4.18 kcal/mol
Translational entropy             ...      0.01838431 Eh     11.54 kcal/mol
-----------------------------------------------------------------------
Final entropy term                ...      0.02526792 Eh     15.86 kcal/mol

-------------------
GIBBS FREE ENERGY
-------------------

The Gibbs free energy is G = H - T*S

Total enthalpy                    ...   -920.37088322 Eh
Total entropy correction          ...     -0.02526792 Eh    -15.86 kcal/mol
-----------------------------------------------------------------------
Final Gibbs free energy         ...   -920.39615114 Eh

For completeness - the Gibbs free energy minus the electronic energy
G-E(el)                           ...     -0.02046081 Eh    -12.84 kcal/mol

                             ****ORCA TERMINATED NORMALLY****
TOTAL RUN TIME: 0 days 0 hours 1 minutes 4 seconds 310 msec
