                         Program Version 5.0.3 -  RELEASE  -
|  1> ! opt freq wB97X Def2-tzvpp D4 Def2/J XYZFile SlowConv RIJCOSX CPCM(THF)
|  2> %scf MaxIter 200000 end
|  3> %geom
|  4> MaxIter 20000
|  5> end
|  6> %PAL NPROCS 1 END
|  7>
|  8> * xyz 0 1
|  9>   Cs    -1.928961    4.147905    -2.738618
| 10>   N    -0.620123    2.69698    -0.67966
| 11>   C    -1.257502    3.489356    0.386759
| 12>   C    -2.743012    3.670327    0.138641
| 13>   H    -0.780254    4.481815    0.376242
| 14>   C    -0.916565    2.947926    1.81473
| 15>   C    -3.434089    2.732455    -0.550098
| 16>   H    -3.247561    4.536323    0.553731
| 17>   C    -2.75205    1.663273    -1.210823
| 18>   C    -1.361982    1.770811    -1.260218
| 19>   H    -3.276203    0.893491    -1.759837
| 20>   H    -4.509363    2.838849    -0.672308
| 21>   H    -0.82123    1.102294    -1.935848
| 22>   C    -1.453842    1.534719    2.032184
| 23>   C    -1.530062    3.885255    2.856546
| 24>   C    0.601895    2.943482    1.995602
| 25>   H    -2.536563    1.500555    1.896061
| 26>   H    -1.228284    1.196582    3.047244
| 27>   H    -0.999856    0.830808    1.333147
| 28>   H    1.081467    2.285861    1.270451
| 29>   H    0.866982    2.601493    2.999401
| 30>   H    1.012894    3.948481    1.862998
| 31>   H    -2.620824    3.873501    2.815755
| 32>   H    -1.196641    4.915685    2.702442
| 33>   H    -1.230262    3.583212    3.862874
| 34> **                         ****END OF INPUT****
 Total Charge           Charge          ....    0
 Multiplicity           Mult            ....    1
 Number of Electrons    NEL             ....   84
Dispersion correction           -0.004464280
FINAL SINGLE POINT ENERGY      -426.350673976452
Dispersion correction            ... Starting D4
Dispersion correction           -0.004467141
FINAL SINGLE POINT ENERGY      -426.354424595621
Dispersion correction            ... Starting D4
Dispersion correction           -0.004462333
FINAL SINGLE POINT ENERGY      -426.357106997799
Dispersion correction            ... Starting D4
FINAL SINGLE POINT ENERGY      -426.358852175886
FINAL SINGLE POINT ENERGY      -426.359888087755
FINAL SINGLE POINT ENERGY      -426.360416977885
FINAL SINGLE POINT ENERGY      -426.360526481562
FINAL SINGLE POINT ENERGY      -426.360538476586
FINAL SINGLE POINT ENERGY      -426.360550922994
FINAL SINGLE POINT ENERGY      -426.360556718880
FINAL SINGLE POINT ENERGY      -426.360576831567
FINAL SINGLE POINT ENERGY      -426.360582713708
FINAL SINGLE POINT ENERGY      -426.360587041892
FINAL SINGLE POINT ENERGY      -426.360590407228
FINAL SINGLE POINT ENERGY      -426.360593471905
FINAL SINGLE POINT ENERGY      -426.360595533327
FINAL SINGLE POINT ENERGY      -426.360597371711
Dispersion correction           -0.004453117
FINAL SINGLE POINT ENERGY      -426.360598549694
Dispersion correction            ... Starting D4
Dispersion correction           -0.004452927
FINAL SINGLE POINT ENERGY      -426.360599510295
Dispersion correction            ... Starting D4
                    ***********************HURRAY********************

CARTESIAN COORDINATES (ANGSTROEM)
---------------------------------
  Cs    -1.916514    4.355313   -2.961508
  N     -0.622371    2.653480   -0.659753
  C     -1.258357    3.463534    0.392573
  C     -2.746605    3.638416    0.158068
  H     -0.779222    4.456885    0.365784
  C     -0.911798    2.944521    1.827735
  C     -3.440821    2.713298   -0.542584
  H     -3.251463    4.493790    0.594763
  C     -2.764200    1.657659   -1.227915
  C     -1.371437    1.749599   -1.259049
  H     -3.290792    0.900118   -1.791519
  H     -4.517211    2.822420   -0.654280
  H     -0.830752    1.079257   -1.933577
  C     -1.448047    1.532574    2.053894
  C     -1.526806    3.891684    2.859949
  C      0.606341    2.945905    2.010050
  H     -2.530875    1.498391    1.918335
  H     -1.220482    1.198062    3.069523
  H     -0.996143    0.827576    1.354464
  H      1.088530    2.271094    1.302969
  H      0.870469    2.629933    3.022553
  H      1.016318    3.947868    1.853649
  H     -2.617452    3.875378    2.821438
  H     -1.198129    4.921593    2.692559
  H     -1.224174    3.603092    3.869277

 Multiplicity           Mult            ....    1
 Number of Electrons    NEL             ....   84
 Basis Dimension        Dim             ....  542

ORBITAL ENERGIES
----------------

  NO   OCC          E(Eh)            E(eV)
   0   2.0000     -14.327197      -389.8629
   1   2.0000     -10.259139      -279.1654
   2   2.0000     -10.257765      -279.1280
   3   2.0000     -10.242590      -278.7150
   4   2.0000     -10.238570      -278.6057
   5   2.0000     -10.225297      -278.2445
   6   2.0000     -10.221498      -278.1411
   7   2.0000     -10.219733      -278.0931
   8   2.0000     -10.217558      -278.0339
   9   2.0000     -10.200114      -277.5592
  10   2.0000      -1.187309       -32.3083
  11   2.0000      -1.015121       -27.6229
  12   2.0000      -0.930658       -25.3245
  13   2.0000      -0.888385       -24.1742
  14   2.0000      -0.839143       -22.8343
  15   2.0000      -0.796636       -21.6776
  16   2.0000      -0.794662       -21.6239
  17   2.0000      -0.734100       -19.9759
  18   2.0000      -0.690953       -18.8018
  19   2.0000      -0.647704       -17.6249
  20   2.0000      -0.638885       -17.3850
  21   2.0000      -0.638056       -17.3624
  22   2.0000      -0.635611       -17.2959
  23   2.0000      -0.602098       -16.3839
  24   2.0000      -0.561100       -15.2683
  25   2.0000      -0.551854       -15.0167
  26   2.0000      -0.546092       -14.8599
  27   2.0000      -0.525403       -14.2969
  28   2.0000      -0.513630       -13.9766
  29   2.0000      -0.497261       -13.5312
  30   2.0000      -0.482623       -13.1329
  31   2.0000      -0.469860       -12.7855
  32   2.0000      -0.452718       -12.3191
  33   2.0000      -0.450008       -12.2453
  34   2.0000      -0.440477       -11.9860
  35   2.0000      -0.426050       -11.5934
  36   2.0000      -0.409449       -11.1417
  37   2.0000      -0.402459       -10.9515
  38   2.0000      -0.393784       -10.7154
  39   2.0000      -0.360566        -9.8115
  40   2.0000      -0.310240        -8.4421
  41   2.0000      -0.230368        -6.2686
  42   0.0000       0.018424         0.5013
  43   0.0000       0.046343         1.2611
  44   0.0000       0.046977         1.2783
  45   0.0000       0.050743         1.3808
  46   0.0000       0.057090         1.5535

MULLIKEN ATOMIC CHARGES
-----------------------
   0 Cs:    0.909446
   1 N :   -0.529833
   2 C :    0.169400
   3 C :   -0.406295
   4 H :    0.072081
   5 C :    0.310646
   6 C :   -0.219174
   7 H :    0.121852
   8 C :   -0.309389
   9 C :   -0.194516
  10 H :    0.112912
  11 H :    0.142099
  12 H :    0.130860
  13 C :   -0.400703
  14 C :   -0.377846
  15 C :   -0.366609
  16 H :    0.095290
  17 H :    0.094739
  18 H :    0.094156
  19 H :    0.087450
  20 H :    0.093648
  21 H :    0.088064
  22 H :    0.090811
  23 H :    0.095439
  24 H :    0.095471
Sum of atomic charges:    0.0000000

LOEWDIN ATOMIC CHARGES
----------------------
   0 Cs:    0.698377
   1 N :    0.024766
   2 C :   -0.179438
   3 C :   -0.081500
   4 H :    0.024332
   5 C :   -0.179694
   6 C :   -0.088639
   7 H :    0.004050
   8 C :   -0.184638
   9 C :   -0.228620
  10 H :   -0.006443
  11 H :    0.026408
  12 H :    0.019912
  13 C :    0.012492
  14 C :    0.008337
  15 C :    0.004383
  16 H :    0.016626
  17 H :    0.012793
  18 H :    0.015623
  19 H :    0.008828
  20 H :    0.012438
  21 H :    0.015148
  22 H :    0.013006
  23 H :    0.016766
  24 H :    0.014687

  Mayer bond orders larger than 0.100000
B(  1-N ,  2-C ) :   0.9883 B(  1-N ,  9-C ) :   1.6626 B(  2-C ,  3-C ) :   0.8848
B(  2-C ,  4-H ) :   1.0086 B(  2-C ,  5-C ) :   0.9512 B(  3-C ,  6-C ) :   1.6862
B(  3-C ,  7-H ) :   1.0363 B(  5-C , 13-C ) :   0.8898 B(  5-C , 14-C ) :   0.8935
B(  5-C , 15-C ) :   0.9095 B(  6-C ,  8-C ) :   1.1536 B(  6-C , 11-H ) :   1.0234
B(  8-C ,  9-C ) :   1.3315 B(  8-C , 10-H ) :   1.0404 B(  9-C , 12-H ) :   1.0228
B( 13-C , 16-H ) :   0.9966 B( 13-C , 17-H ) :   1.0051 B( 13-C , 18-H ) :   0.9972
B( 14-C , 22-H ) :   0.9969 B( 14-C , 23-H ) :   0.9985 B( 14-C , 24-H ) :   1.0029
B( 15-C , 19-H ) :   0.9989 B( 15-C , 20-H ) :   1.0040 B( 15-C , 21-H ) :   0.9923

Dispersion correction           -0.004452809
FINAL SINGLE POINT ENERGY      -426.360600424533

DIPOLE MOMENT
-------------
                                X             Y             Z
Electronic contribution:    -26.95514     102.60162    -232.69778
Nuclear contribution   :     26.10014     -99.89223     229.13889
                        -----------------------------------------
Total Dipole Moment    :     -0.85500       2.70939      -3.55889
                        -----------------------------------------
Magnitude (a.u.)       :      4.55385
Magnitude (Debye)      :     11.57496

Dispersion correction in the Hessian             ... Starting D4

VIBRATIONAL FREQUENCIES
-----------------------

Scaling factor for frequencies =  1.000000000  (already applied!)

   0:         0.00 cm**-1
   1:         0.00 cm**-1
   2:         0.00 cm**-1
   3:         0.00 cm**-1
   4:         0.00 cm**-1
   5:         0.00 cm**-1
   6:        43.42 cm**-1
   7:        70.48 cm**-1
   8:       100.88 cm**-1
   9:       121.18 cm**-1
  10:       146.11 cm**-1
  11:       222.57 cm**-1
  12:       233.14 cm**-1
  13:       259.89 cm**-1
  14:       281.20 cm**-1
  15:       295.68 cm**-1
  16:       331.15 cm**-1
  17:       345.19 cm**-1
  18:       396.12 cm**-1
  19:       421.31 cm**-1
  20:       462.81 cm**-1
  21:       509.68 cm**-1
  22:       573.54 cm**-1
  23:       609.48 cm**-1
  24:       650.00 cm**-1
  25:       689.12 cm**-1
  26:       747.03 cm**-1
  27:       803.10 cm**-1
  28:       864.49 cm**-1
  29:       943.56 cm**-1
  30:       950.93 cm**-1
  31:       959.56 cm**-1
  32:       962.88 cm**-1
  33:       992.23 cm**-1
  34:      1005.73 cm**-1
  35:      1013.05 cm**-1
  36:      1018.56 cm**-1
  37:      1033.54 cm**-1
  38:      1057.00 cm**-1
  39:      1066.48 cm**-1
  40:      1128.17 cm**-1
  41:      1177.54 cm**-1
  42:      1239.63 cm**-1
  43:      1259.81 cm**-1
  44:      1273.77 cm**-1
  45:      1320.67 cm**-1
  46:      1359.31 cm**-1
  47:      1375.69 cm**-1
  48:      1391.64 cm**-1
  49:      1400.42 cm**-1
  50:      1414.78 cm**-1
  51:      1416.06 cm**-1
  52:      1472.53 cm**-1
  53:      1475.20 cm**-1
  54:      1480.66 cm**-1
  55:      1482.11 cm**-1
  56:      1490.13 cm**-1
  57:      1495.50 cm**-1
  58:      1506.54 cm**-1
  59:      1548.69 cm**-1
  60:      1668.35 cm**-1
  61:      2933.14 cm**-1
  62:      3042.52 cm**-1
  63:      3044.93 cm**-1
  64:      3052.66 cm**-1
  65:      3078.13 cm**-1
  66:      3110.58 cm**-1
  67:      3115.11 cm**-1
  68:      3121.55 cm**-1
  69:      3129.52 cm**-1
  70:      3139.02 cm**-1
  71:      3142.14 cm**-1
  72:      3152.35 cm**-1
  73:      3185.20 cm**-1
  74:      3226.55 cm**-1

IR SPECTRUM
-----------

 Mode   freq       eps      Int      T**2         TX        TY        TZ
       cm**-1   L/(mol*cm) km/mol    a.u.
----------------------------------------------------------------------------
  6:     43.42   0.001377    6.96  0.009896  (-0.048705 -0.048503 -0.071911)
  7:     70.48   0.000350    1.77  0.001549  ( 0.036153 -0.011144 -0.010842)
  8:    100.88   0.001023    5.17  0.003166  ( 0.040485 -0.034326 -0.018668)
  9:    121.18   0.004484   22.66  0.011548  (-0.005747 -0.080059  0.071453)
 10:    146.11   0.001060    5.36  0.002265  (-0.003063  0.021682 -0.042253)
 11:    222.57   0.000089    0.45  0.000125  (-0.007914  0.000786  0.007848)
 12:    233.14   0.001241    6.27  0.001661  (-0.014943 -0.008531  0.036948)
 13:    259.89   0.000230    1.16  0.000277  (-0.005249  0.015656 -0.002011)
 14:    281.20   0.000203    1.03  0.000225  ( 0.003855  0.008593 -0.011691)
 15:    295.68   0.000307    1.55  0.000324  (-0.008211  0.013999 -0.007798)
 16:    331.15   0.000664    3.35  0.000626  (-0.021385  0.009114  0.009232)
 17:    345.19   0.000792    4.00  0.000716  ( 0.005556 -0.007927  0.024952)
 18:    396.12   0.000139    0.70  0.000110  ( 0.000636  0.003718 -0.009775)
 19:    421.31   0.000115    0.58  0.000085  ( 0.004642 -0.007324  0.003206)
 20:    462.81   0.006248   31.57  0.004213  ( 0.022902  0.032843 -0.051082)
 21:    509.68   0.003558   17.98  0.002178  (-0.022716 -0.007530  0.040072)
 22:    573.54   0.017265   87.25  0.009394  ( 0.001509  0.074620 -0.061832)
 23:    609.48   0.006558   33.14  0.003358  ( 0.036222  0.027646 -0.035795)
 24:    650.00   0.001783    9.01  0.000856  ( 0.004857 -0.024026  0.015968)
 25:    689.12   0.005023   25.38  0.002275  (-0.000233  0.034230 -0.033209)
 26:    747.03   0.007227   36.52  0.003019  ( 0.009618  0.029259 -0.045503)
 27:    803.10   0.003253   16.44  0.001264  (-0.008837 -0.027962  0.020096)
 28:    864.49   0.002030   10.26  0.000733  (-0.012579  0.010680 -0.021459)
 29:    943.56   0.004502   22.75  0.001489  (-0.002698 -0.002144  0.038434)
 30:    950.93   0.000292    1.48  0.000096  (-0.009519  0.002149  0.000839)
 31:    959.56   0.001356    6.85  0.000441  (-0.007883 -0.008919  0.017297)
 32:    962.88   0.000829    4.19  0.000269  (-0.005373 -0.005478  0.014489)
 33:    992.23   0.002775   14.02  0.000873  ( 0.028523 -0.006425  0.004236)
 34:   1005.73   0.000191    0.96  0.000059  (-0.001573 -0.002856  0.006964)
 35:   1013.05   0.000546    2.76  0.000168  ( 0.010369  0.007773 -0.000350)
 36:   1018.56   0.008891   44.93  0.002724  (-0.018123 -0.037764 -0.031136)
 37:   1033.54   0.003590   18.14  0.001084  ( 0.004069 -0.017555  0.027552)
 38:   1057.00   0.000471    2.38  0.000139  ( 0.011200  0.000795  0.003594)
 39:   1066.48   0.000494    2.50  0.000145  (-0.009376 -0.006425 -0.003932)
 40:   1128.17   0.006690   33.81  0.001850  (-0.023797  0.023473  0.027076)
 41:   1177.54   0.001185    5.99  0.000314  (-0.010176 -0.014511 -0.000027)
 42:   1239.63   0.003508   17.73  0.000883  (-0.013503 -0.003071 -0.026295)
 43:   1259.81   0.000498    2.52  0.000123  ( 0.004389 -0.005807 -0.008385)
 44:   1273.77   0.000189    0.96  0.000046  ( 0.005716  0.001360  0.003445)
 45:   1320.67   0.031966  161.54  0.007553  (-0.086471  0.007601 -0.004269)
 46:   1359.31   0.006228   31.47  0.001430  (-0.032157 -0.010333 -0.016998)
 47:   1375.69   0.002046   10.34  0.000464  (-0.004973  0.012208  0.017039)
 48:   1391.64   0.005849   29.56  0.001312  (-0.031961  0.013647  0.010187)
 49:   1400.42   0.002145   10.84  0.000478  (-0.009962 -0.018957  0.004408)
 50:   1414.78   0.006456   32.63  0.001424  (-0.004541 -0.004234 -0.037223)
 51:   1416.06   0.003993   20.18  0.000880  ( 0.010933  0.027414  0.002992)
 52:   1472.53   0.000289    1.46  0.000061  ( 0.007453 -0.000897 -0.002223)
 53:   1475.20   0.030217  152.71  0.006392  (-0.065577  0.038577  0.024567)
 54:   1480.66   0.007536   38.08  0.001588  ( 0.035771 -0.013687 -0.011019)
 55:   1482.11   0.002831   14.31  0.000596  ( 0.019209 -0.012706 -0.008098)
 56:   1490.13   0.001057    5.34  0.000221  (-0.008636  0.010518  0.006021)
 57:   1495.50   0.002314   11.69  0.000483  ( 0.020611  0.007459  0.001523)
 58:   1506.54   0.004694   23.72  0.000972  ( 0.001167 -0.011245  0.029061)
 59:   1548.69   0.039139  197.79  0.007886  (-0.085730 -0.013078 -0.019125)
 60:   1668.35   0.041980  212.15  0.007852  ( 0.040556  0.059214  0.051974)
 61:   2933.14   0.035213  177.95  0.003746  (-0.027186 -0.054050 -0.009270)
 62:   3042.52   0.007565   38.23  0.000776  ( 0.023602 -0.012763 -0.007478)
 63:   3044.93   0.017302   87.43  0.001773  ( 0.021833  0.033285  0.013733)
 64:   3052.66   0.009096   45.97  0.000930  (-0.004604  0.010373 -0.028302)
 65:   3078.13   0.018231   92.13  0.001848  ( 0.016895 -0.028718 -0.027168)
 66:   3110.58   0.005096   25.76  0.000511  (-0.000020 -0.017660  0.014121)
 67:   3115.11   0.018404   93.01  0.001844  (-0.007775 -0.033400  0.025839)
 68:   3121.55   0.009806   49.55  0.000980  ( 0.013012 -0.004638  0.028098)
 69:   3129.52   0.011830   59.78  0.001180  ( 0.028596  0.004941  0.018371)
 70:   3139.02   0.004898   24.75  0.000487  (-0.021184  0.003896  0.004798)
 71:   3142.14   0.010875   54.96  0.001080  (-0.009681  0.020441  0.023843)
 72:   3152.35   0.004100   20.72  0.000406  ( 0.020052  0.000776  0.001791)
 73:   3185.20   0.007097   35.86  0.000695  ( 0.018676 -0.016925 -0.007748)
 74:   3226.55   0.003696   18.68  0.000357  ( 0.007894  0.014174  0.009709)

--------------------------
THERMOCHEMISTRY AT 298.15K
--------------------------

Temperature         ... 298.15 K
Pressure            ... 1.00 atm
Total Mass          ... 269.12 AMU

Throughout the following assumptions are being made:
  (1) The electronic state is orbitally nondegenerate
  (2) There are no thermally accessible electronically excited states
  (3) Hindered rotations indicated by low frequency modes are not
      treated as such but are treated as vibrations and this may
      cause some error
  (4) All equations used are the standard statistical mechanics
      equations for an ideal gas
  (5) All vibrations are strictly harmonic

freq.      43.42  E(vib)   ...       0.53
freq.      70.48  E(vib)   ...       0.50
freq.     100.88  E(vib)   ...       0.46
freq.     121.18  E(vib)   ...       0.44
freq.     146.11  E(vib)   ...       0.41
freq.     222.57  E(vib)   ...       0.33
freq.     233.14  E(vib)   ...       0.32
freq.     259.89  E(vib)   ...       0.30
freq.     281.20  E(vib)   ...       0.28
freq.     295.68  E(vib)   ...       0.27
freq.     331.15  E(vib)   ...       0.24
freq.     345.19  E(vib)   ...       0.23
freq.     396.12  E(vib)   ...       0.20
freq.     421.31  E(vib)   ...       0.18
freq.     462.81  E(vib)   ...       0.16
freq.     509.68  E(vib)   ...       0.14
freq.     573.54  E(vib)   ...       0.11
freq.     609.48  E(vib)   ...       0.10
freq.     650.00  E(vib)   ...       0.08
freq.     689.12  E(vib)   ...       0.07
freq.     747.03  E(vib)   ...       0.06
freq.     803.10  E(vib)   ...       0.05
freq.     864.49  E(vib)   ...       0.04
freq.     943.56  E(vib)   ...       0.03
freq.     950.93  E(vib)   ...       0.03
freq.     959.56  E(vib)   ...       0.03
freq.     962.88  E(vib)   ...       0.03
freq.     992.23  E(vib)   ...       0.02
freq.    1005.73  E(vib)   ...       0.02
freq.    1013.05  E(vib)   ...       0.02
freq.    1018.56  E(vib)   ...       0.02
freq.    1033.54  E(vib)   ...       0.02
freq.    1057.00  E(vib)   ...       0.02
freq.    1066.48  E(vib)   ...       0.02
freq.    1128.17  E(vib)   ...       0.01
freq.    1177.54  E(vib)   ...       0.01
freq.    1239.63  E(vib)   ...       0.01
freq.    1259.81  E(vib)   ...       0.01
freq.    1273.77  E(vib)   ...       0.01
freq.    1320.67  E(vib)   ...       0.01
freq.    1359.31  E(vib)   ...       0.01
freq.    1375.69  E(vib)   ...       0.01
freq.    1391.64  E(vib)   ...       0.00
freq.    1400.42  E(vib)   ...       0.00
freq.    1414.78  E(vib)   ...       0.00
freq.    1416.06  E(vib)   ...       0.00
freq.    1472.53  E(vib)   ...       0.00
freq.    1475.20  E(vib)   ...       0.00
freq.    1480.66  E(vib)   ...       0.00
freq.    1482.11  E(vib)   ...       0.00
freq.    1490.13  E(vib)   ...       0.00
freq.    1495.50  E(vib)   ...       0.00
freq.    1506.54  E(vib)   ...       0.00
freq.    1548.69  E(vib)   ...       0.00
freq.    1668.35  E(vib)   ...       0.00
freq.    2933.14  E(vib)   ...       0.00
freq.    3042.52  E(vib)   ...       0.00
freq.    3044.93  E(vib)   ...       0.00
freq.    3052.66  E(vib)   ...       0.00
freq.    3078.13  E(vib)   ...       0.00
freq.    3110.58  E(vib)   ...       0.00
freq.    3115.11  E(vib)   ...       0.00
freq.    3121.55  E(vib)   ...       0.00
freq.    3129.52  E(vib)   ...       0.00
freq.    3139.02  E(vib)   ...       0.00
freq.    3142.14  E(vib)   ...       0.00
freq.    3152.35  E(vib)   ...       0.00
freq.    3185.20  E(vib)   ...       0.00
freq.    3226.55  E(vib)   ...       0.00

------------
INNER ENERGY
------------

The inner energy is: U= E(el) + E(ZPE) + E(vib) + E(rot) + E(trans)
    E(el)   - is the total energy from the electronic structure calculation
              = E(kin-el) + E(nuc-el) + E(el-el) + E(nuc-nuc)
    E(ZPE)  - the the zero temperature vibrational energy from the frequency calculation
    E(vib)  - the the finite temperature correction to E(ZPE) due to population
              of excited vibrational states
    E(rot)  - is the rotational thermal energy
    E(trans)- is the translational thermal energy

Summary of contributions to the inner energy U:
Electronic energy                ...   -426.36060042 Eh
Zero point energy                ...      0.21194179 Eh     133.00 kcal/mol
Thermal vibrational correction   ...      0.00932608 Eh       5.85 kcal/mol
Thermal rotational correction    ...      0.00141627 Eh       0.89 kcal/mol
Thermal translational correction ...      0.00141627 Eh       0.89 kcal/mol
-----------------------------------------------------------------------
Total thermal energy                   -426.13650001 Eh

Summary of corrections to the electronic energy:
(perhaps to be used in another calculation)
Total thermal correction                  0.01215862 Eh       7.63 kcal/mol
Non-thermal (ZPE) correction              0.21194179 Eh     133.00 kcal/mol
-----------------------------------------------------------------------
Total correction                          0.22410041 Eh     140.62 kcal/mol

--------
ENTHALPY
--------

The enthalpy is H = U + kB*T
                kB is Boltzmann's constant
Total free energy                 ...   -426.13650001 Eh
Thermal Enthalpy correction       ...      0.00094421 Eh       0.59 kcal/mol
-----------------------------------------------------------------------
Total Enthalpy                    ...   -426.13555580 Eh

Note: Only C1 symmetry has been detected, increase convergence thresholds
      if your molecule has a higher symmetry. Symmetry factor of 1.0 is
      used for the rotational entropy correction.

Note: Rotational entropy computed according to Herzberg
Infrared and Raman Spectra, Chapter V,1, Van Nostrand Reinhold, 1945
Point Group:  C1, Symmetry Number:   1
Rotational constants in cm-1:     0.049099     0.011631     0.011172

Vibrational entropy computed according to the QRRHO of S. Grimme
Chem.Eur.J. 2012 18 9955

-------
ENTROPY
-------

The entropy contributions are T*S = T*(S(el)+S(vib)+S(rot)+S(trans))
     S(el)   - electronic entropy
     S(vib)  - vibrational entropy
     S(rot)  - rotational entropy
     S(trans)- translational entropy
The entropies will be listed as multiplied by the temperature to get
units of energy

Electronic entropy                ...      0.00000000 Eh      0.00 kcal/mol
Vibrational entropy               ...      0.01604959 Eh     10.07 kcal/mol
Rotational entropy                ...      0.01515813 Eh      9.51 kcal/mol
Translational entropy             ...      0.02027335 Eh     12.72 kcal/mol
-----------------------------------------------------------------------

                             ****ORCA TERMINATED NORMALLY****
TOTAL RUN TIME: 0 days 11 hours 16 minutes 22 seconds 324 msec
