                         Program Version 5.0.4 -  RELEASE  -
|  1> ! OPT wB97X D4 def2-SVP def2/J defgrid2 XYZFILE CPCM(Water)
|  2> %maxcore 3000
|  3> %geom
|  4> maxiter 200
|  5> end
|  6> %PAL NPROCS 10 END
|  7> * xyz 1 1
|  8> C -0.038892995 1.5540472442 0.046531964
|  9> C 0.0306251156 0.0624852688 -0.0499048004
| 10> C 0.7074763245 -0.4734024255 -1.2384568927
| 11> C 1.2492377287 -0.9178046091 -2.1895803523
| 12> H -0.57246176 1.7371252302 0.9868048335
| 13> Cl 0.5180586064 -0.3077117559 0.852349865
| 14> H -0.9877068341 -0.3234513066 0.0019860753
| 15> H 1.7337043125 -1.3069521469 -3.0402627779
| 16> H 0.19313233220000003 2.2082892389 -0.37538608855
| 17> *
| 18>
| 19>                          ****END OF INPUT****
 Total Charge           Charge          ....    1
 Multiplicity           Mult            ....    1
 Number of Electrons    NEL             ....   44
Dispersion correction           -0.000767215
FINAL SINGLE POINT ENERGY      -613.441029367766
Dispersion correction            ... Starting D4
Dispersion correction           -0.000767729
FINAL SINGLE POINT ENERGY      -613.839537828003
Dispersion correction            ... Starting D4
Dispersion correction           -0.000769233
FINAL SINGLE POINT ENERGY      -614.076176659464
Dispersion correction            ... Starting D4
FINAL SINGLE POINT ENERGY      -614.214599770165
FINAL SINGLE POINT ENERGY      -614.291758322994
FINAL SINGLE POINT ENERGY      -614.332248632277
FINAL SINGLE POINT ENERGY      -614.351446259033
FINAL SINGLE POINT ENERGY      -614.359074074005
FINAL SINGLE POINT ENERGY      -614.362709702454
FINAL SINGLE POINT ENERGY      -614.365867262042
FINAL SINGLE POINT ENERGY      -614.396074256506
FINAL SINGLE POINT ENERGY      -614.396135993503
FINAL SINGLE POINT ENERGY      -614.396165118330
FINAL SINGLE POINT ENERGY      -614.396181973621
FINAL SINGLE POINT ENERGY      -614.396215660683
FINAL SINGLE POINT ENERGY      -614.396247197250
FINAL SINGLE POINT ENERGY      -614.396262099827
Dispersion correction            ... Starting D4
Dispersion correction           -0.000753807
FINAL SINGLE POINT ENERGY      -614.396266013836
Dispersion correction            ... Starting D4
Dispersion correction           -0.000753747
FINAL SINGLE POINT ENERGY      -614.396268390339
Dispersion correction            ... Starting D4
                    ***********************HURRAY********************

CARTESIAN COORDINATES (ANGSTROEM)
---------------------------------
  C     -0.018479    1.340974    0.271540
  C     -0.208154    0.018177   -0.316720
  C      0.568190   -0.464548   -1.391569
  C      1.192173   -0.877087   -2.342905
  H     -0.874444    1.797124    0.777967
  Cl     0.821501    0.191447    1.412960
  H     -1.105908   -0.546596   -0.030635
  H      1.746990   -1.241435   -3.197200
  H      0.711304    2.014569   -0.189356

 Multiplicity           Mult            ....    1
 Number of Electrons    NEL             ....   44
 Basis Dimension        Dim             ....   94

ORBITAL ENERGIES
----------------

  NO   OCC          E(Eh)            E(eV)
   0   2.0000    -101.577874     -2764.0745
   1   2.0000     -10.444224      -284.2018
   2   2.0000     -10.402134      -283.0565
   3   2.0000     -10.345538      -281.5164
   4   2.0000     -10.330316      -281.1022
   5   2.0000      -9.649847      -262.5857
   6   2.0000      -7.418387      -201.8646
   7   2.0000      -7.410254      -201.6433
   8   2.0000      -7.405157      -201.5046
   9   2.0000      -1.127812       -30.6893
  10   2.0000      -0.963321       -26.2133
  11   2.0000      -0.897982       -24.4353
  12   2.0000      -0.824881       -22.4462
  13   2.0000      -0.716629       -19.5005
  14   2.0000      -0.670585       -18.2475
  15   2.0000      -0.654837       -17.8190
  16   2.0000      -0.580760       -15.8033
  17   2.0000      -0.577486       -15.7142
  18   2.0000      -0.538838       -14.6625
  19   2.0000      -0.487981       -13.2786
  20   2.0000      -0.439003       -11.9459
  21   2.0000      -0.432973       -11.7818
  22   0.0000      -0.062430        -1.6988
  23   0.0000       0.041877         1.1395
  24   0.0000       0.076986         2.0949
  25   0.0000       0.142253         3.8709
  26   0.0000       0.169004         4.5988

MULLIKEN ATOMIC CHARGES
-----------------------
   0 C :    0.111201
   1 C :   -0.037599
   2 C :    0.350331
   3 C :   -0.266797
   4 H :    0.195079
   5 Cl:    0.105578
   6 H :    0.215980
   7 H :    0.136455
   8 H :    0.189773
Sum of atomic charges:    1.0000000

LOEWDIN ATOMIC CHARGES
----------------------
   0 C :    0.059937
   1 C :    0.130779
   2 C :   -0.069818
   3 C :    0.119263
   4 H :    0.087849
   5 Cl:    0.391865
   6 H :    0.107299
   7 H :    0.088458
   8 H :    0.084369

  Mayer bond orders larger than 0.100000
B(  0-C ,  1-C ) :   1.0139 B(  0-C ,  4-H ) :   0.9368 B(  0-C ,  5-Cl) :   0.8089
B(  0-C ,  8-H ) :   0.9411 B(  1-C ,  2-C ) :   1.0291 B(  1-C ,  5-Cl) :   0.6512
B(  1-C ,  6-H ) :   0.9135 B(  2-C ,  3-C ) :   2.3852 B(  3-C ,  7-H ) :   1.0480

Dispersion correction           -0.000753670
FINAL SINGLE POINT ENERGY      -614.396270378730

DIPOLE MOMENT
-------------
                                X             Y             Z
Electronic contribution:      1.25712      -0.80889       3.87325
Nuclear contribution   :     -1.97690       1.39270      -4.42861
                        -----------------------------------------
Total Dipole Moment    :     -0.71977       0.58381      -0.55536
                        -----------------------------------------
Magnitude (a.u.)       :      1.08043
Magnitude (Debye)      :      2.74623

Rotational constants in cm-1:     0.345772     0.083099     0.073426
Rotational constants in MHz : 10365.996760  2491.245999  2201.257135

                             ****ORCA TERMINATED NORMALLY****
TOTAL RUN TIME: 0 days 0 hours 5 minutes 4 seconds 600 msec
