                         Program Version 5.0.4 -  RELEASE  -
|  1> ! SP wB97X D4 def2-SVP def2/J defgrid2 XYZFILE
|  2> %maxcore 3000
|  3> %PAL NPROCS 1 END
|  4> * xyz 1 1
|  5> C -0.069415 1.510813 0.072998
|  6> C -0.001495 0.074158 -0.099303
|  7> C 0.707935 -0.482077 -1.205955
|  8> C 1.237266 -0.907496 -2.19809
|  9> H -0.616364 1.732387 0.999064
| 10> Cl 0.64296 -0.366274 1.070383
| 11> H -1.038353 -0.312469 -0.089416
| 12> H 1.715345 -1.282363 -3.077496
| 13> H 0.255295 2.265946 -0.478103
| 14> **                         ****END OF INPUT****

CARTESIAN COORDINATES (ANGSTROEM)
---------------------------------
  C     -0.069415    1.510813    0.072998
  C     -0.001495    0.074158   -0.099303
  C      0.707935   -0.482077   -1.205955
  C      1.237266   -0.907496   -2.198090
  H     -0.616364    1.732387    0.999064
  Cl     0.642960   -0.366274    1.070383
  H     -1.038353   -0.312469   -0.089416
  H      1.715345   -1.282363   -3.077496
  H      0.255295    2.265946   -0.478103

 Total Charge           Charge          ....    1
 Multiplicity           Mult            ....    1
 Number of Electrons    NEL             ....   44
 Basis Dimension        Dim             ....   94

ORBITAL ENERGIES
----------------

  NO   OCC          E(Eh)            E(eV)
   0   2.0000    -101.712224     -2767.7303
   1   2.0000     -10.652654      -289.8734
   2   2.0000     -10.578112      -287.8451
   3   2.0000     -10.466454      -284.8067
   4   2.0000     -10.457891      -284.5737
   5   2.0000      -9.798356      -266.6268
   6   2.0000      -7.565742      -205.8743
   7   2.0000      -7.556596      -205.6254
   8   2.0000      -7.552910      -205.5251
   9   2.0000      -1.395667       -37.9780
  10   2.0000      -1.139815       -31.0160
  11   2.0000      -1.078589       -29.3499
  12   2.0000      -0.992115       -26.9968
  13   2.0000      -0.936006       -25.4700
  14   2.0000      -0.888734       -24.1837
  15   2.0000      -0.829217       -22.5641
  16   2.0000      -0.820788       -22.3348
  17   2.0000      -0.786872       -21.4119
  18   2.0000      -0.654138       -17.8000
  19   2.0000      -0.623794       -16.9743
  20   2.0000      -0.572658       -15.5828
  21   2.0000      -0.564798       -15.3689
  22   0.0000      -0.310677        -8.4539
  23   0.0000      -0.079025        -2.1504
  24   0.0000      -0.054695        -1.4883
  25   0.0000      -0.025231        -0.6866
  26   0.0000      -0.009229        -0.2511

MULLIKEN ATOMIC CHARGES
-----------------------
   0 C :    0.328599
   1 C :   -0.001011
   2 C :    0.251396
   3 C :   -0.320840
   4 H :    0.191312
   5 Cl:    0.135093
   6 H :    0.178794
   7 H :    0.103978
   8 H :    0.132679
Sum of atomic charges:    1.0000000

LOEWDIN ATOMIC CHARGES
----------------------
   0 C :    0.458094
   1 C :   -0.282973
   2 C :   -0.122036
   3 C :    0.084043
   4 H :    0.091812
   5 Cl:    0.542149
   6 H :    0.098757
   7 H :    0.072768
   8 H :    0.057387

  Mayer bond orders larger than 0.100000
B(  0-C ,  1-C ) :   1.0857 B(  0-C ,  4-H ) :   0.9370 B(  0-C ,  5-Cl) :   0.3820
B(  0-C ,  8-H ) :   0.9715 B(  1-C ,  2-C ) :   0.8487 B(  1-C ,  5-Cl) :   1.0254
B(  1-C ,  6-H ) :   0.8285 B(  2-C ,  3-C ) :   2.5886 B(  3-C ,  7-H ) :   1.0626

Dispersion correction           -0.000772986
FINAL SINGLE POINT ENERGY      -614.110899667842

DIPOLE MOMENT
-------------
                                X             Y             Z
Electronic contribution:      0.94935      -1.29902       3.56847
Nuclear contribution   :     -1.82309       2.97278      -3.75599
                        -----------------------------------------
Total Dipole Moment    :     -0.87374       1.67376      -0.18752
                        -----------------------------------------
Magnitude (a.u.)       :      1.89738
Magnitude (Debye)      :      4.82276

Rotational constants in cm-1:     0.276097     0.115997     0.086497
Rotational constants in MHz :  8277.178169  3477.512656  2593.123253

                             ****ORCA TERMINATED NORMALLY****
TOTAL RUN TIME: 0 days 0 hours 0 minutes 36 seconds 675 msec
