                         Program Version 5.0.2 -  RELEASE  -
|  1> # avogadro generated ORCA input file
|  2> # Basic Mode
|  3> #
|  4> ! wB97X D4 Def2-tzvpp OPT FREQ SlowConv TightSCF DEFGRID2 engrad XYZFILE def2/J RIJCOSX
|  5> %PAL NPROCS 4 END
|  6>
|  7> * xyz 0 1
|  8>    C       -8.88416        2.32937        0.00000
|  9>   Ir       -7.78416        2.32936        0.00000
| 10>    H       -9.25072        3.27490       -0.42614
| 11>    H       -9.25072        2.22565        1.03193
| 12>    H       -9.25072        1.48755       -0.60578
| 13> *
| 14>
| 15>
| 16>                          ****END OF INPUT****

CARTESIAN COORDINATES (ANGSTROEM)
---------------------------------
  C     -8.884160    2.329370    0.000000
  Ir    -7.784160    2.329360    0.000000
  H     -9.250720    3.274900   -0.426140
  H     -9.250720    2.225650    1.031930
  H     -9.250720    1.487550   -0.605780

 Total Charge           Charge          ....    0
 Multiplicity           Mult            ....    1
 Number of Electrons    NEL             ....   26
 Basis Dimension        Dim             ....  129

ORBITAL ENERGIES
----------------

  NO   OCC          E(Eh)            E(eV)
   0   2.0000     -10.446934      -284.2755
   1   2.0000      -3.859633      -105.0260
   2   2.0000      -2.349890       -63.9438
   3   2.0000      -2.162429       -58.8427
   4   2.0000      -2.162426       -58.8426
   5   2.0000      -0.861850       -23.4521
   6   2.0000      -0.779325       -21.2065
   7   2.0000      -0.779316       -21.2063
   8   2.0000      -0.561246       -15.2723
   9   2.0000      -0.383005       -10.4221
  10   2.0000      -0.382990       -10.4217
  11   2.0000      -0.279372        -7.6021
  12   2.0000      -0.279365        -7.6019
  13   0.0000      -0.070411        -1.9160
  14   0.0000       0.087150         2.3715
  15   0.0000       0.099372         2.7040
  16   0.0000       0.099392         2.7046
  17   0.0000       0.123356         3.3567

MULLIKEN ATOMIC CHARGES
-----------------------
   0 C :   -0.273041
   1 Ir:    0.671017
   2 H :   -0.133310
   3 H :   -0.132218
   4 H :   -0.132448
Sum of atomic charges:   -0.0000000

LOEWDIN ATOMIC CHARGES
----------------------
   0 C :   -1.227685
   1 Ir:    1.255790
   2 H :   -0.009362
   3 H :   -0.009382
   4 H :   -0.009360

  Mayer bond orders larger than 0.100000
B(  0-C ,  1-Ir) :   2.6821 B(  0-C ,  2-H ) :   0.8976 B(  0-C ,  3-H ) :   0.8977
B(  0-C ,  4-H ) :   0.8976 B(  1-Ir,  2-H ) :   0.2068 B(  1-Ir,  3-H ) :   0.2066
B(  1-Ir,  4-H ) :   0.2068

Dispersion correction           -0.000245147
FINAL SINGLE POINT ENERGY      -142.884428800391
Dispersion correction            ... Starting D4

DIPOLE MOMENT
-------------
                                X             Y             Z
Electronic contribution:     17.11817       0.00005      -0.00047
Nuclear contribution   :    -16.60290       0.00012       0.00002
                        -----------------------------------------
Total Dipole Moment    :      0.51526       0.00016      -0.00045
                        -----------------------------------------
Magnitude (a.u.)       :      0.51527
Magnitude (Debye)      :      1.30970

Dispersion correction in the Hessian             ... Starting D4

VIBRATIONAL FREQUENCIES
-----------------------

Scaling factor for frequencies =  1.000000000  (already applied!)

   0:         0.00 cm**-1
   1:         0.00 cm**-1
   2:         0.00 cm**-1
   3:         0.00 cm**-1
   4:         0.00 cm**-1
   5:         0.00 cm**-1
   6:     -3668.98 cm**-1 ***imaginary mode***
   7:     -3664.62 cm**-1 ***imaginary mode***
   8:      -278.92 cm**-1 ***imaginary mode***
   9:      -259.88 cm**-1 ***imaginary mode***
  10:       950.60 cm**-1
  11:      2778.45 cm**-1
  12:      2779.51 cm**-1
  13:      3063.76 cm**-1
  14:      4173.63 cm**-1

IR SPECTRUM
-----------

 Mode   freq       eps      Int      T**2         TX        TY        TZ
       cm**-1   L/(mol*cm) km/mol    a.u.
----------------------------------------------------------------------------
 10:    950.60   0.007334   37.06  0.002407  (-0.049063  0.000558  0.000008)
 11:   2778.45   0.479888  2425.16  0.053899  (-0.000069  0.215066 -0.087440)
 12:   2779.51   0.475156  2401.25  0.053347  (-0.000010 -0.087211 -0.213873)
 13:   3063.76   0.114905  580.68  0.011704  (-0.108184 -0.000109  0.000031)
 14:   4173.63   0.051810  261.83  0.003874  ( 0.062240  0.000039 -0.000049)

--------------------------
THERMOCHEMISTRY AT 298.15K
--------------------------

Temperature         ... 298.15 K
Pressure            ... 1.00 atm
Total Mass          ... 207.26 AMU

Throughout the following assumptions are being made:
  (1) The electronic state is orbitally nondegenerate
  (2) There are no thermally accessible electronically excited states
  (3) Hindered rotations indicated by low frequency modes are not
      treated as such but are treated as vibrations and this may
      cause some error
  (4) All equations used are the standard statistical mechanics
      equations for an ideal gas
  (5) All vibrations are strictly harmonic

freq.     950.60  E(vib)   ...       0.03
freq.    2778.45  E(vib)   ...       0.00
freq.    2779.51  E(vib)   ...       0.00
freq.    3063.76  E(vib)   ...       0.00
freq.    4173.63  E(vib)   ...       0.00

------------
INNER ENERGY
------------

The inner energy is: U= E(el) + E(ZPE) + E(vib) + E(rot) + E(trans)
    E(el)   - is the total energy from the electronic structure calculation
              = E(kin-el) + E(nuc-el) + E(el-el) + E(nuc-nuc)
    E(ZPE)  - the the zero temperature vibrational energy from the frequency calculation
    E(vib)  - the the finite temperature correction to E(ZPE) due to population
              of excited vibrational states
    E(rot)  - is the rotational thermal energy
    E(trans)- is the translational thermal energy

Summary of contributions to the inner energy U:
Electronic energy                ...   -142.88442880 Eh
Zero point energy                ...      0.03131559 Eh      19.65 kcal/mol
Thermal vibrational correction   ...      0.00004460 Eh       0.03 kcal/mol
Thermal rotational correction    ...      0.00141627 Eh       0.89 kcal/mol
Thermal translational correction ...      0.00141627 Eh       0.89 kcal/mol
-----------------------------------------------------------------------
Total thermal energy                   -142.85023607 Eh

Summary of corrections to the electronic energy:
(perhaps to be used in another calculation)
Total thermal correction                  0.00287714 Eh       1.81 kcal/mol
Non-thermal (ZPE) correction              0.03131559 Eh      19.65 kcal/mol
-----------------------------------------------------------------------
Total correction                          0.03419273 Eh      21.46 kcal/mol

--------
ENTHALPY
--------

The enthalpy is H = U + kB*T
                kB is Boltzmann's constant
Total free energy                 ...   -142.85023607 Eh
Thermal Enthalpy correction       ...      0.00094421 Eh       0.59 kcal/mol
-----------------------------------------------------------------------
Total Enthalpy                    ...   -142.84929186 Eh

Note: Rotational entropy computed according to Herzberg
Infrared and Raman Spectra, Chapter V,1, Van Nostrand Reinhold, 1945
Point Group:  C3v, Symmetry Number:   3
Rotational constants in cm-1:     5.182654     0.796634     0.796633

Vibrational entropy computed according to the QRRHO of S. Grimme
Chem.Eur.J. 2012 18 9955

-------
ENTROPY
-------

The entropy contributions are T*S = T*(S(el)+S(vib)+S(rot)+S(trans))
     S(el)   - electronic entropy
     S(vib)  - vibrational entropy
     S(rot)  - rotational entropy
     S(trans)- translational entropy
The entropies will be listed as multiplied by the temperature to get
units of energy

Electronic entropy                ...      0.00000000 Eh      0.00 kcal/mol
Vibrational entropy               ...      0.00005429 Eh      0.03 kcal/mol
Rotational entropy                ...      0.00791145 Eh      4.96 kcal/mol
Translational entropy             ...      0.01990339 Eh     12.49 kcal/mol
-----------------------------------------------------------------------
Final entropy term                ...      0.02786913 Eh     17.49 kcal/mol

In case the symmetry of your molecule has not been determined correctly
or in case you have a reason to use a different symmetry number we print
out the resulting rotational entropy values for sn=1,12 :
 --------------------------------------------------------
|  sn= 1 | S(rot)=       0.00894874 Eh      5.62 kcal/mol|
|  sn= 2 | S(rot)=       0.00829428 Eh      5.20 kcal/mol|
|  sn= 3 | S(rot)=       0.00791145 Eh      4.96 kcal/mol|
|  sn= 4 | S(rot)=       0.00763983 Eh      4.79 kcal/mol|
|  sn= 5 | S(rot)=       0.00742914 Eh      4.66 kcal/mol|
|  sn= 6 | S(rot)=       0.00725700 Eh      4.55 kcal/mol|
|  sn= 7 | S(rot)=       0.00711145 Eh      4.46 kcal/mol|
|  sn= 8 | S(rot)=       0.00698537 Eh      4.38 kcal/mol|
|  sn= 9 | S(rot)=       0.00687416 Eh      4.31 kcal/mol|
|  sn=10 | S(rot)=       0.00677468 Eh      4.25 kcal/mol|
|  sn=11 | S(rot)=       0.00668469 Eh      4.19 kcal/mol|
|  sn=12 | S(rot)=       0.00660254 Eh      4.14 kcal/mol|
 --------------------------------------------------------

-------------------
GIBBS FREE ENERGY
-------------------

The Gibbs free energy is G = H - T*S

Total enthalpy                    ...   -142.84929186 Eh
Total entropy correction          ...     -0.02786913 Eh    -17.49 kcal/mol
-----------------------------------------------------------------------
Final Gibbs free energy         ...   -142.87716099 Eh

For completeness - the Gibbs free energy minus the electronic energy
G-E(el)                           ...      0.00726781 Eh      4.56 kcal/mol

                             ****ORCA TERMINATED NORMALLY****
TOTAL RUN TIME: 0 days 0 hours 1 minutes 30 seconds 727 msec
