                         Program Version 5.0.4 -  RELEASE  -
|  1> ! engrad HF-3c
|  2> %scf maxiter 200 end
|  3> *xyz 0 1
|  4> O   1.64440008 0.6654211 1.80080053
|  5> O   0.54136298 2.82067824 1.46959197
|  6> O   4.21550759 0.62262835 1.25353563
|  7> O   2.01537472 4.87056552 0.90651347
|  8> C   0.26622856 0.60691138 2.25101089
|  9> C   -0.13732709 2.06877452 2.49789453
| 10> C   2.2046558 -0.62139264 2.00985889
| 11> C   3.75847688 -0.52998203 2.04667549
| 12> C   -0.13542398 3.95646012 0.95383727
| 13> C   -0.65622913 -0.10585046 1.25303954
| 14> C   1.02010523 4.47721954 0.06377225
| 15> C   4.4546417 -1.81747664 1.60468645
| 16> C   -1.42554089 3.68241801 0.17303553
| 17> C   4.68804646 0.60634784 -0.15640937
| 18> H   0.17856099 0.06218446 3.20783471
| 19> H   0.2120576 2.33703204 3.5185949
| 20> H   -1.23470951 2.20329361 2.52686085
| 21> H   1.90989699 -1.35255044 1.23211151
| 22> H   1.86946028 -1.0803254 2.96416478
| 23> H   4.03941606 -0.30859992 3.09730659
| 24> H   -0.33906659 4.73040698 1.7371115
| 25> H   -0.67117035 0.37890292 0.26901701
| 26> H   -1.68590886 -0.14832016 1.63323916
| 27> H   -0.32226212 -1.1426421 1.08702443
| 28> H   1.42840584 3.55949818 -0.47044896
| 29> H   0.71308978 5.22519301 -0.68234249
| 30> H   5.54405268 -1.66706396 1.61546895
| 31> H   4.22796194 -2.66265555 2.26206776
| 32> H   4.18185937 -2.07805895 0.57032889
| 33> H   -2.1398008 3.1056313 0.78593136
| 34> H   -1.92247747 4.6233844 -0.10001238
| 35> H   -1.25241853 3.10934472 -0.74884078
| 36> H   4.0120806 0.29050382 -0.95287246
| 37> H   5.51579953 -0.09818341 -0.34940306
| 38> H   5.15327016 1.51882458 -0.53149804
| 39> K   2.76074149 2.47150924 0.42384785
| 40> O   4.99041267 3.21777654 1.2733486
| 41> C   5.81025348 3.48573257 3.32715851
| 42> C   4.75429562 4.14201874 2.40886321
| 43> C   6.344299 3.0813255 1.92673883
| 44> C   5.30063591 2.25126348 4.09842218
| 45> C   6.65374097 4.49922314 4.09524653
| 46> C   6.27087942 1.63960497 5.09822149
| 47> C   5.94943958 5.17717269 5.2497194
| 48> H   3.70195227 4.18564641 2.74628145
| 49> H   5.02813027 5.1807447 2.16112699
| 50> H   7.03442078 3.84820604 1.54278212
| 51> H   6.86341791 2.12209024 1.83195858
| 52> H   5.021301 1.51803978 3.33783639
| 53> H   4.3814843 2.52107078 4.64407303
| 54> H   6.99864874 5.27081715 3.39819922
| 55> H   7.57003065 4.02573035 4.46230867
| 56> H   5.78815882 0.81370066 5.63780522
| 57> H   7.18938925 1.23528102 4.64805305
| 58> H   6.57667902 2.35798647 5.87504546
| 59> H   5.0495941 5.72832888 4.95231969
| 60> H   5.65363899 4.4683042 6.03712546
| 61> H   6.62273026 5.90293696 5.717274
| 62> *
| 63>
| 64>                          ****END OF INPUT****

CARTESIAN COORDINATES (ANGSTROEM)
---------------------------------
  O      1.644400    0.665421    1.800801
  O      0.541363    2.820678    1.469592
  O      4.215508    0.622628    1.253536
  O      2.015375    4.870566    0.906513
  C      0.266229    0.606911    2.251011
  C     -0.137327    2.068775    2.497895
  C      2.204656   -0.621393    2.009859
  C      3.758477   -0.529982    2.046675
  C     -0.135424    3.956460    0.953837
  C     -0.656229   -0.105850    1.253040
  C      1.020105    4.477220    0.063772
  C      4.454642   -1.817477    1.604686
  C     -1.425541    3.682418    0.173036
  C      4.688046    0.606348   -0.156409
  H      0.178561    0.062184    3.207835
  H      0.212058    2.337032    3.518595
  H     -1.234710    2.203294    2.526861
  H      1.909897   -1.352550    1.232112
  H      1.869460   -1.080325    2.964165
  H      4.039416   -0.308600    3.097307
  H     -0.339067    4.730407    1.737111
  H     -0.671170    0.378903    0.269017
  H     -1.685909   -0.148320    1.633239
  H     -0.322262   -1.142642    1.087024
  H      1.428406    3.559498   -0.470449
  H      0.713090    5.225193   -0.682342
  H      5.544053   -1.667064    1.615469
  H      4.227962   -2.662656    2.262068
  H      4.181859   -2.078059    0.570329
  H     -2.139801    3.105631    0.785931
  H     -1.922477    4.623384   -0.100012
  H     -1.252419    3.109345   -0.748841
  H      4.012081    0.290504   -0.952872
  H      5.515800   -0.098183   -0.349403
  H      5.153270    1.518825   -0.531498
  K      2.760741    2.471509    0.423848
  O      4.990413    3.217777    1.273349
  C      5.810253    3.485733    3.327159
  C      4.754296    4.142019    2.408863
  C      6.344299    3.081326    1.926739
  C      5.300636    2.251263    4.098422
  C      6.653741    4.499223    4.095247
  C      6.270879    1.639605    5.098221
  C      5.949440    5.177173    5.249719
  H      3.701952    4.185646    2.746281
  H      5.028130    5.180745    2.161127
  H      7.034421    3.848206    1.542782
  H      6.863418    2.122090    1.831959
  H      5.021301    1.518040    3.337836
  H      4.381484    2.521071    4.644073
  H      6.998649    5.270817    3.398199
  H      7.570031    4.025730    4.462309
  H      5.788159    0.813701    5.637805
  H      7.189389    1.235281    4.648053
  H      6.576679    2.357986    5.875045
  H      5.049594    5.728329    4.952320
  H      5.653639    4.468304    6.037125
  H      6.622730    5.902937    5.717274

 Total Charge           Charge          ....    0
 Multiplicity           Mult            ....    1
 Number of Electrons    NEL             ....  196
 Basis Dimension        Dim             ....  156

ORBITAL ENERGIES
----------------

  NO   OCC          E(Eh)            E(eV)
   0   2.0000    -133.387871     -3629.6685
   1   2.0000     -20.339700      -553.4714
   2   2.0000     -20.318172      -552.8856
   3   2.0000     -20.291629      -552.1633
   4   2.0000     -20.270238      -551.5812
   5   2.0000     -19.835979      -539.7644
   6   2.0000     -14.358111      -390.7041
   7   2.0000     -11.391129      -309.9684
   8   2.0000     -11.390690      -309.9564
   9   2.0000     -11.390572      -309.9532
  10   2.0000     -11.264324      -306.5178
  11   2.0000     -11.241872      -305.9069
  12   2.0000     -11.239998      -305.8559
  13   2.0000     -11.233253      -305.6724
  14   2.0000     -11.206334      -304.9399
  15   2.0000     -11.201188      -304.7998
  16   2.0000     -11.186275      -304.3940
  17   2.0000     -11.182228      -304.2839
  18   2.0000     -11.171650      -303.9960
  19   2.0000     -11.161685      -303.7249
  20   2.0000     -11.155437      -303.5549
  21   2.0000     -11.153383      -303.4990
  22   2.0000     -11.146190      -303.3032
  23   2.0000     -11.145391      -303.2815
  24   2.0000     -11.138842      -303.1033
  25   2.0000     -11.106744      -302.2299
  26   2.0000     -11.067349      -301.1579
  27   2.0000      -1.637233       -44.5514
  28   2.0000      -1.388234       -37.7758
  29   2.0000      -1.344292       -36.5801
  30   2.0000      -1.335764       -36.3480
  31   2.0000      -1.318050       -35.8660
  32   2.0000      -1.102191       -29.9921
  33   2.0000      -1.085094       -29.5269
  34   2.0000      -1.061868       -28.8949
  35   2.0000      -1.041604       -28.3435
  36   2.0000      -1.018753       -27.7217
  37   2.0000      -0.974162       -26.5083
  38   2.0000      -0.969928       -26.3931
  39   2.0000      -0.967079       -26.3156
  40   2.0000      -0.945631       -25.7319
  41   2.0000      -0.920520       -25.0486
  42   2.0000      -0.902961       -24.5708
  43   2.0000      -0.860706       -23.4210
  44   2.0000      -0.851920       -23.1819
  45   2.0000      -0.848356       -23.0849
  46   2.0000      -0.845271       -23.0010
  47   2.0000      -0.832917       -22.6648
  48   2.0000      -0.814305       -22.1584
  49   2.0000      -0.810350       -22.0508
  50   2.0000      -0.776637       -21.1334
  51   2.0000      -0.720421       -19.6037
  52   2.0000      -0.710182       -19.3250
  53   2.0000      -0.694939       -18.9103
  54   2.0000      -0.676374       -18.4051
  55   2.0000      -0.661357       -17.9964
  56   2.0000      -0.655766       -17.8443
  57   2.0000      -0.653844       -17.7920
  58   2.0000      -0.648799       -17.6547
  59   2.0000      -0.625374       -17.0173
  60   2.0000      -0.618792       -16.8382
  61   2.0000      -0.616528       -16.7766
  62   2.0000      -0.607478       -16.5303
  63   2.0000      -0.605577       -16.4786
  64   2.0000      -0.594590       -16.1796
  65   2.0000      -0.587717       -15.9926
  66   2.0000      -0.572240       -15.5714
  67   2.0000      -0.564930       -15.3725
  68   2.0000      -0.561889       -15.2898
  69   2.0000      -0.557027       -15.1575
  70   2.0000      -0.552511       -15.0346
  71   2.0000      -0.546339       -14.8666
  72   2.0000      -0.539995       -14.6940
  73   2.0000      -0.534459       -14.5434
  74   2.0000      -0.527525       -14.3547
  75   2.0000      -0.524001       -14.2588
  76   2.0000      -0.517121       -14.0716
  77   2.0000      -0.512653       -13.9500
  78   2.0000      -0.501271       -13.6403
  79   2.0000      -0.492439       -13.3999
  80   2.0000      -0.491393       -13.3715
  81   2.0000      -0.490216       -13.3395
  82   2.0000      -0.482923       -13.1410
  83   2.0000      -0.479754       -13.0548
  84   2.0000      -0.457800       -12.4574
  85   2.0000      -0.452721       -12.3192
  86   2.0000      -0.443518       -12.0687
  87   2.0000      -0.441047       -12.0015
  88   2.0000      -0.428202       -11.6520
  89   2.0000      -0.421901       -11.4805
  90   2.0000      -0.410618       -11.1735
  91   2.0000      -0.408214       -11.1081
  92   2.0000      -0.394625       -10.7383
  93   2.0000      -0.388096       -10.5606
  94   2.0000      -0.362007        -9.8507
  95   2.0000      -0.271978        -7.4009
  96   2.0000      -0.129927        -3.5355
  97   2.0000      -0.125884        -3.4255
  98   0.0000       0.065798         1.7904
  99   0.0000       0.246554         6.7091
 100   0.0000       0.344752         9.3812
 101   0.0000       0.423872        11.5341
 102   0.0000       0.435656        11.8548

MULLIKEN ATOMIC CHARGES
-----------------------
   0 O :   -0.428117
   1 O :   -0.444163
   2 O :   -0.440147
   3 O :   -0.741417
   4 C :    0.064639
   5 C :   -0.047538
   6 C :   -0.051075
   7 C :    0.068820
   8 C :    0.052748
   9 C :   -0.368615
  10 C :   -0.052076
  11 C :   -0.371541
  12 C :   -0.373528
  13 C :   -0.213897
  14 H :    0.122600
  15 H :    0.126286
  16 H :    0.126429
  17 H :    0.121039
  18 H :    0.126298
  19 H :    0.149018
  20 H :    0.123202
  21 H :    0.136742
  22 H :    0.130320
  23 H :    0.118652
  24 H :   -0.017007
  25 H :    0.055636
  26 H :    0.138003
  27 H :    0.134272
  28 H :    0.128785
  29 H :    0.098214
  30 H :    0.123504
  31 H :    0.110698
  32 H :    0.119348
  33 H :    0.130490
  34 H :    0.156038
  35 K :    0.881834
  36 O :   -0.433486
  37 C :   -0.017700
  38 C :   -0.061692
  39 C :   -0.069441
  40 C :   -0.237023
  41 C :   -0.236312
  42 C :   -0.362953
  43 C :   -0.364050
  44 H :    0.162277
  45 H :    0.140011
  46 H :    0.125737
  47 H :    0.122942
  48 H :    0.139204
  49 H :    0.125419
  50 H :    0.121906
  51 H :    0.121712
  52 H :    0.117657
  53 H :    0.117337
  54 H :    0.122291
  55 H :    0.129574
  56 H :    0.119815
  57 H :    0.122283
Sum of atomic charges:    0.0000000

LOEWDIN ATOMIC CHARGES
----------------------
   0 O :   -0.312129
   1 O :   -0.324505
   2 O :   -0.331213
   3 O :   -0.731743
   4 C :    0.092849
   5 C :    0.003128
   6 C :   -0.000751
   7 C :    0.097866
   8 C :    0.070162
   9 C :   -0.244898
  10 C :   -0.009291
  11 C :   -0.244086
  12 C :   -0.251997
  13 C :   -0.097630
  14 H :    0.071517
  15 H :    0.076633
  16 H :    0.077699
  17 H :    0.071382
  18 H :    0.076904
  19 H :    0.093857
  20 H :    0.074092
  21 H :    0.092084
  22 H :    0.086734
  23 H :    0.077356
  24 H :   -0.019487
  25 H :    0.019243
  26 H :    0.092101
  27 H :    0.089162
  28 H :    0.085065
  29 H :    0.061509
  30 H :    0.082007
  31 H :    0.071774
  32 H :    0.077274
  33 H :    0.082805
  34 H :    0.108192
  35 K :    0.683726
  36 O :   -0.341521
  37 C :    0.002013
  38 C :    0.014139
  39 C :    0.002001
  40 C :   -0.144184
  41 C :   -0.143755
  42 C :   -0.235465
  43 C :   -0.235406
  44 H :    0.107804
  45 H :    0.087240
  46 H :    0.075281
  47 H :    0.072583
  48 H :    0.092016
  49 H :    0.080156
  50 H :    0.075836
  51 H :    0.075437
  52 H :    0.075571
  53 H :    0.074609
  54 H :    0.078968
  55 H :    0.083770
  56 H :    0.076832
  57 H :    0.078684

  Mayer bond orders larger than 0.100000
B(  0-O ,  4-C ) :   0.9155 B(  0-O ,  6-C ) :   0.9574 B(  1-O ,  5-C ) :   0.9614
B(  1-O ,  8-C ) :   0.8962 B(  2-O ,  7-C ) :   0.9031 B(  2-O , 13-C ) :   0.9420
B(  3-O , 10-C ) :   1.1301 B(  3-O , 35-K ) :   0.1349 B(  4-C ,  5-C ) :   0.9867
B(  4-C ,  9-C ) :   1.0019 B(  4-C , 14-H ) :   0.9502 B(  5-C , 15-H ) :   0.9543
B(  5-C , 16-H ) :   0.9571 B(  6-C ,  7-C ) :   0.9775 B(  6-C , 17-H ) :   0.9533
B(  6-C , 18-H ) :   0.9540 B(  7-C , 11-C ) :   1.0077 B(  7-C , 19-H ) :   0.9452
B(  8-C , 10-C ) :   0.9293 B(  8-C , 12-C ) :   0.9961 B(  8-C , 20-H ) :   0.9456
B(  9-C , 21-H ) :   0.9710 B(  9-C , 22-H ) :   0.9720 B(  9-C , 23-H ) :   0.9745
B( 10-C , 24-H ) :   0.9282 B( 10-C , 25-H ) :   0.9392 B( 11-C , 26-H ) :   0.9701
B( 11-C , 27-H ) :   0.9704 B( 11-C , 28-H ) :   0.9720 B( 12-C , 29-H ) :   0.9763
B( 12-C , 30-H ) :   0.9741 B( 12-C , 31-H ) :   0.9759 B( 13-C , 32-H ) :   0.9618
B( 13-C , 33-H ) :   0.9644 B( 13-C , 34-H ) :   0.9619 B( 36-O , 38-C ) :   0.9303
B( 36-O , 39-C ) :   0.9442 B( 37-C , 38-C ) :   0.9804 B( 37-C , 39-C ) :   0.9804
B( 37-C , 40-C ) :   0.9911 B( 37-C , 41-C ) :   0.9988 B( 38-C , 44-H ) :   0.9470
B( 38-C , 45-H ) :   0.9541 B( 39-C , 46-H ) :   0.9596 B( 39-C , 47-H ) :   0.9579
B( 40-C , 42-C ) :   1.0181 B( 40-C , 48-H ) :   0.9587 B( 40-C , 49-H ) :   0.9641
B( 41-C , 43-C ) :   1.0173 B( 41-C , 50-H ) :   0.9648 B( 41-C , 51-H ) :   0.9641
B( 42-C , 52-H ) :   0.9753 B( 42-C , 53-H ) :   0.9753 B( 42-C , 54-H ) :   0.9733
B( 43-C , 55-H ) :   0.9721 B( 43-C , 56-H ) :   0.9741 B( 43-C , 57-H ) :   0.9746

Dispersion correction           -0.262321220
FINAL SINGLE POINT ENERGY     -1630.665451173973
Dispersion correction            ... done

DIPOLE MOMENT
-------------
                                X             Y             Z
Electronic contribution:     -4.56743       3.84625     -14.17067
Nuclear contribution   :      5.61373      -8.17089      14.67304
                        -----------------------------------------
Total Dipole Moment    :      1.04630      -4.32465       0.50237
                        -----------------------------------------
Magnitude (a.u.)       :      4.47769
Magnitude (Debye)      :     11.38138

Rotational constants in cm-1:     0.009442     0.005650     0.004492
Rotational constants in MHz :   283.072008   169.386724   134.671131

                             ****ORCA TERMINATED NORMALLY****
TOTAL RUN TIME: 0 days 0 hours 0 minutes 24 seconds 208 msec
