                         Program Version 5.0.3 -  RELEASE  -
|  1> # input to generate an atomic fitting density for Rb
|  2> # this file is used internally by ORCA
|  3> #
|  4> # atomic ground state (S=2): 1s2 2s2 2p6 3s2 3p6 4s2 3d10 4p6 5s1
|  5> #
|  6> ! RHF AllowRHF def2-SVP def2/J  NoMulliken NoLoewdin NoMayer NoPrintMOs
|  7>
|  8> %output print[p_atomdensfit] 2 end
|  9>
| 10> %scf
| 11>   guess hcore
| 12>   maxiter 1000
| 13>   maxdisk 500000
| 14>   SCFMode Conventional
| 15>   lshift 1.000000
| 16>   hftyp rohf
| 17>   rohf_case sahf
| 18>   rohf_numop   2
| 19>   rohf_norb[1] 1
| 20>   rohf_nel[1]  1
| 21> end
| 22>
| 23> %basis
| 24>   NewECP 37
| 25>     N_core 28
| 26>     lmax f
| 27>     s 3
| 28>       1       5.0365510000     89.5001980000  2
| 29>       2       1.9708490000      0.4937610000  2
| 30>       3       3.8431140000     12.3169000000  2
| 31>     p 3
| 32>       1       4.2583410000     58.5689740000  2
| 33>       2       1.4707090000      0.4317910000  2
| 34>       3       3.8431140000     12.3169000000  2
| 35>     d 3
| 36>       1       3.0231270000     26.2248980000  2
| 37>       2       0.6503830000      0.9628390000  2
| 38>       3       3.8431140000     12.3169000000  2
| 39>     f 1
| 40>       1       3.8431140000    -12.3169000000  2
| 41>   end
| 42>   NewGTO 37
| 43>     s 2
| 44>      1       7.4744618040      1.7106146109
| 45>      2       6.7296180594     -2.7010364459
| 46>     s 1
| 47>      1       2.7816640004      1.0000000000
| 48>     s 1
| 49>      1       0.5345217515      1.0000000000
| 50>     s 1
| 51>      1       0.2236879303      1.0000000000
| 52>     s 1
| 53>      1       0.0324104071      1.0000000000
| 54>     s 1
| 55>      1       0.0141710474      1.0000000000
| 56>     p 4
| 57>      1       5.6720643194      0.0525368698
| 58>      2       3.3320183956     -0.2018427941
| 59>      3       0.8015005491      0.4674711930
| 60>      4       0.3630222023      0.6406638595
| 61>     p 1
| 62>      1       0.1573392439      1.0000000000
| 63>     p 1
| 64>      1       0.0400000000      1.0000000000
| 65>     p 1
| 66>      1       0.0160000000      1.0000000000
| 67>     d 1
| 68>      1       0.2590786696      1.0000000000
| 69>     d 1
| 70>      1       0.0425074380      1.0000000000
| 71>     d 1
| 72>      1       0.0119092768      1.0000000000
| 73>   end
| 74>   NewAuxGTO 37
| 75>     S 1
| 76>      1 1310.72 1.0
| 77>     S 1
| 78>      1  655.36 1.0
| 79>     S 1
| 80>      1  327.68 1.0
| 81>     S 1
| 82>      1  163.84 1.0
| 83>     S 1
| 84>      1   81.82 1.0
| 85>     S 1
| 86>      1   40.96 1.0
| 87>     S 1
| 88>      1   20.48 1.0
| 89>     S 1
| 90>      1   10.24 1.0
| 91>     S 1
| 92>      1    5.12 1.0
| 93>     S 1
| 94>      1    2.56 1.0
| 95>     S 1
| 96>      1    1.28 1.0
| 97>     S 1
| 98>      1    0.64 1.0
| 99>     S 1
|100>      1    0.32 1.0
|101>     S 1
|102>      1    0.16 1.0
|103>     S 1
|104>      1    0.08 1.0
|105>     S 1
|106>      1    0.04 1.0
|107>     S 1
|108>      1    0.02 1.0
|109>     S 1
|110>      1    0.01 1.0
|111>   end
|112> end
|113>
|114> * xyz 0 2
|115> 37  0.0 0.0 0.0
|116> *
|117>
|118>
|119>                          ****END OF INPUT****

CARTESIAN COORDINATES (ANGSTROEM)
---------------------------------
  Rb     0.000000    0.000000    0.000000

 Total Charge           Charge          ....    0
 Multiplicity           Mult            ....    2
 Number of Electrons    NEL             ....    9
 Basis Dimension        Dim             ....   33

ORBITAL ENERGIES
----------------

  NO   OCC          E(Eh)            E(eV)
   0   2.0000      -1.654772       -45.0286
   1   2.0000      -0.888141       -24.1675
   2   2.0000      -0.886546       -24.1241
   3   2.0000      -0.886541       -24.1240
   4   1.0000      -0.057557        -1.5662
   5   0.0000      -0.137510        -3.7418
   6   0.0000      -0.087844        -2.3904
   7   0.0000      -0.087813        -2.3895
   8   0.0000      -0.087811        -2.3895
   9   0.0000      -0.053815        -1.4644

FINAL SINGLE POINT ENERGY       -23.720284977486

DIPOLE MOMENT
-------------
                                X             Y             Z
Electronic contribution:     -0.00000       0.00000       0.00000
Nuclear contribution   :      0.00000       0.00000       0.00000
                        -----------------------------------------
Total Dipole Moment    :     -0.00000       0.00000       0.00000
                        -----------------------------------------
Magnitude (a.u.)       :      0.00000
Magnitude (Debye)      :      0.00000

Rotational constants in cm-1:     0.000000     0.000000     0.000000
Rotational constants in MHz :     0.000000     0.000000     0.000000

                             ****ORCA TERMINATED NORMALLY****
TOTAL RUN TIME: 0 days 0 hours 0 minutes 1 seconds 990 msec
