 Gaussian 16, Revision C.01,
 Gaussian 16:  ES64L-G16RevC.01  3-Jul-2019

 ----------------------------------------------
 # wb97x/6-31g* force integral=(grid=ultrafine)
 ----------------------------------------------

 ----------------------------
 ANI1x compatible calculation
 ----------------------------
 Symbolic Z-matrix:
 Charge =  0 Multiplicity = 1

                         Standard orientation:
 ---------------------------------------------------------------------
 Center     Atomic      Atomic             Coordinates (Angstroms)
 Number     Number       Type             X           Y           Z
 ---------------------------------------------------------------------
      1          6           0        0.229176    2.896178   -0.865252
      2          1           0        1.005238    2.208641   -1.209871
      3          1           0        0.598637    3.385249    0.041157
      4          1           0        0.039255    3.647870   -1.631309
      5          6           0       -1.092991    2.161673   -0.634594
      6          8           0       -2.054201    2.342655   -1.361989
      7          7           0       -1.106798    1.275501    0.424048
      8          6           0       -2.389551    0.682256    0.798892
      9          1           0       -2.658287    0.987153    1.815654
     10          1           0       -3.144715    1.057002    0.107891
     11          6           0       -2.292471   -0.838372    0.842851
     12          7           0       -2.298139   -1.519386   -0.342675
     13          8           0       -2.153697   -1.401970    1.938381
     14          6           0       -2.489323   -0.933160   -1.660624
     15          1           0       -1.669248   -1.245799   -2.317224
     16          1           0       -3.430808   -1.288869   -2.097429
     17          1           0       -2.500463    0.154837   -1.624585
     18          6           0       -2.178169   -2.968949   -0.317602
     19          1           0       -1.320479   -3.283411   -0.921916
     20          1           0       -2.039805   -3.283599    0.714722
     21          1           0       -3.083477   -3.429508   -0.728049
     22          6           0        0.002851    1.086222    1.363571
     23          1           0        0.273898    2.039587    1.838853
     24          1           0       -0.381784    0.433512    2.154229
     25          6           0        1.228774    0.454055    0.747282
     26          6           0        2.508639    0.907886    1.088550
     27          6           0        1.114147   -0.642078   -0.114719
     28          6           0        3.650709    0.300506    0.573613
     29          1           0        2.618596    1.762838    1.754705
     30          6           0        2.250332   -1.254490   -0.642696
     31          1           0        0.126447   -1.008812   -0.384857
     32          6           0        3.521091   -0.789684   -0.292506
     33          1           0        4.646586    0.653254    0.826824
     34          1           0        2.146413   -2.105426   -1.315809
     35          8           0        4.680715   -1.347971   -0.771349
     36          1           0        4.446726   -2.091292   -1.353525
 ---------------------------------------------------------------------

 SCF Done:  E(RwB97X) =  -841.208802925     A.U. after   15 cycles

 The electronic state is 1-A.
 Alpha  occ. eigenvalues --  -19.25215 -19.18605 -19.17930 -14.44858 -14.44827
 Alpha  occ. eigenvalues --  -10.37918 -10.37367 -10.34210 -10.31705 -10.30850
 Alpha  occ. eigenvalues --  -10.30208 -10.29751 -10.28478 -10.28365 -10.28314
 Alpha  occ. eigenvalues --  -10.28283 -10.27629 -10.27115  -1.18837  -1.17071
 Alpha  occ. eigenvalues --   -1.15638  -1.07069  -1.06302  -0.99181  -0.90785
 Alpha  occ. eigenvalues --   -0.88595  -0.88445  -0.85601  -0.84250  -0.81838
 Alpha  occ. eigenvalues --   -0.79946  -0.75106  -0.72331  -0.67357  -0.66376
 Alpha  occ. eigenvalues --   -0.65531  -0.63265  -0.61971  -0.60264  -0.59664
 Alpha  occ. eigenvalues --   -0.58805  -0.57856  -0.56766  -0.56018  -0.54573
 Alpha  occ. eigenvalues --   -0.53497  -0.53062  -0.52252  -0.51939  -0.51267
 Alpha  occ. eigenvalues --   -0.51215  -0.51188  -0.50765  -0.49780  -0.48781
 Alpha  occ. eigenvalues --   -0.48179  -0.47060  -0.46742  -0.45773  -0.44436
 Alpha  occ. eigenvalues --   -0.43996  -0.36330  -0.35829  -0.35226  -0.34191
 Alpha  occ. eigenvalues --   -0.33470  -0.30967
 Alpha virt. eigenvalues --    0.07114   0.08535   0.10455   0.11998   0.15653
 Alpha virt. eigenvalues --    0.16360   0.17961   0.20025   0.21779   0.23026
 Alpha virt. eigenvalues --    0.23568   0.23918   0.24307   0.24644   0.25604

 Mulliken charges:
               1
     1  C   -0.565953
     2  H    0.202920
     3  H    0.171480
     4  H    0.199044
     5  C    0.567645
     6  O   -0.502738
     7  N   -0.441809
     8  C   -0.262776
     9  H    0.194533
    10  H    0.218450
    11  C    0.562781
    12  N   -0.423218
    13  O   -0.515820
    14  C   -0.365283
    15  H    0.161692
    16  H    0.170829
    17  H    0.223615
    18  C   -0.345271
    19  H    0.154743
    20  H    0.223522
    21  H    0.167757
    22  C   -0.245668
    23  H    0.168001
    24  H    0.222340
    25  C    0.094544
    26  C   -0.203457
    27  C   -0.164770
    28  C   -0.194931
    29  H    0.157580
    30  C   -0.236453
    31  H    0.163805
    32  C    0.344955
    33  H    0.176743
    34  H    0.148990
    35  O   -0.645808
    36  H    0.417986
 Sum of Mulliken charges =  -0.00000

 Dipole moment (field-independent basis, Debye):
    X=              1.3188    Y=             -1.0920    Z=             -1.6976  Tot=              2.4111
 Quadrupole moment (field-independent basis, Debye-Ang):
   XX=           -111.3353   YY=           -100.2281   ZZ=           -109.7922
   XY=              3.1721   XZ=              0.0332   YZ=             16.9503

 Normal termination of Gaussian 16 at Tue Feb 18 14:14:36 2025.
