 Output coordinates in angstroms (scale by  1.889725989 to convert to a.u.)

  No.       Tag          Charge          X              Y              Z
 ---- ---------------- ---------- -------------- -------------- --------------
    1 Ra                  88.0000     0.00000000     0.00000000     0.00000000

         Total DFT energy =      -23.823696836314

                       DFT Final Molecular Orbital Analysis
                       ------------------------------------

 Vector    1  Occ=2.000000D+00  E=-1.472030D+00

 Vector    2  Occ=2.000000D+00  E=-7.656937D-01

 Vector    3  Occ=2.000000D+00  E=-7.656937D-01

 Vector    4  Occ=2.000000D+00  E=-7.656937D-01

 Vector    5  Occ=0.000000D+00  E=-4.092830D-02

 Vector    6  Occ=0.000000D+00  E= 7.247445D-03

 Vector    7  Occ=0.000000D+00  E= 7.247445D-03

 Vector    8  Occ=0.000000D+00  E= 7.247445D-03

 Vector    9  Occ=0.000000D+00  E= 7.837981D-03

 Vector   10  Occ=0.000000D+00  E= 7.837981D-03

 Vector   11  Occ=0.000000D+00  E= 3.485818D-02

 Vector   12  Occ=0.000000D+00  E= 3.485818D-02

 Vector   13  Occ=0.000000D+00  E= 3.485818D-02

 Vector   14  Occ=0.000000D+00  E= 1.237316D-01

 Vector   15  Occ=0.000000D+00  E= 1.237316D-01

 Vector   16  Occ=0.000000D+00  E= 1.237316D-01

 Vector   17  Occ=0.000000D+00  E= 1.402573D-01

 Vector   18  Occ=0.000000D+00  E= 1.402573D-01

 Vector   19  Occ=0.000000D+00  E= 1.402573D-01

 Vector   20  Occ=0.000000D+00  E= 1.409000D-01

 Vector   21  Occ=0.000000D+00  E= 1.409000D-01

 Vector   22  Occ=0.000000D+00  E= 1.794171D-01

 Vector   23  Occ=0.000000D+00  E= 5.858327D-01

 Vector   24  Occ=0.000000D+00  E= 5.858327D-01

 Vector   25  Occ=0.000000D+00  E= 5.858327D-01

 Vector   26  Occ=0.000000D+00  E= 1.017654D+00

 Vector   27  Occ=0.000000D+00  E= 1.017654D+00

 Vector   28  Occ=0.000000D+00  E= 1.017654D+00

 Vector   29  Occ=0.000000D+00  E= 1.017970D+00

 Vector   30  Occ=0.000000D+00  E= 1.017970D+00

 Vector   31  Occ=0.000000D+00  E= 1.089968D+00

 Vector   32  Occ=0.000000D+00  E= 6.603343D+00

 Vector   33  Occ=0.000000D+00  E= 6.603343D+00

 Vector   34  Occ=0.000000D+00  E= 6.603343D+00

 Vector   35  Occ=0.000000D+00  E= 7.347800D+00

 Vector   36  Occ=0.000000D+00  E= 7.347800D+00

 Vector   37  Occ=0.000000D+00  E= 7.347800D+00

 Vector   38  Occ=0.000000D+00  E= 7.347835D+00

 Vector   39  Occ=0.000000D+00  E= 7.347835D+00

 Vector   40  Occ=0.000000D+00  E= 5.244419D+01

 Total times  cpu:        0.2s     wall:        0.3s
