         Total DFT energy =      -40.428564856102
@ Step       Energy      Delta E   Gmax     Grms     Xrms     Xmax   Walltime
@ ---- ---------------- -------- -------- -------- -------- -------- --------
@    0     -40.42856486  0.0D+00  0.08364  0.02715  0.00000  0.00000      0.2
         Total DFT energy =      -40.450031455715
         Total DFT energy =      -40.450469484139
@    1     -40.45046948 -2.2D-02  0.05104  0.01744  0.20462  0.59933      0.6
         Total DFT energy =      -40.455293587233
         Total DFT energy =      -40.456230632441
@    2     -40.45623063 -5.8D-03  0.00989  0.00378  0.05867  0.17314      1.0
         Total DFT energy =      -40.456833263546

 Vector   13  Occ=0.000000D+00  E= 9.210068D-01  Symmetry=a'

 Vector   14  Occ=0.000000D+00  E= 9.249274D-01  Symmetry=a"

 Vector   15  Occ=0.000000D+00  E= 9.275381D-01  Symmetry=a'

 Vector   16  Occ=0.000000D+00  E= 9.738677D-01  Symmetry=a'

 Vector   17  Occ=0.000000D+00  E= 1.115155D+00  Symmetry=a'

 Vector   18  Occ=0.000000D+00  E= 1.662875D+00  Symmetry=a"

 Vector   19  Occ=0.000000D+00  E= 1.663288D+00  Symmetry=a'

 Vector   20  Occ=0.000000D+00  E= 2.258925D+00  Symmetry=a'

 Vector   21  Occ=0.000000D+00  E= 2.261073D+00  Symmetry=a"

 Vector   22  Occ=0.000000D+00  E= 2.262427D+00  Symmetry=a'

 Vector   23  Occ=0.000000D+00  E= 4.217540D+00  Symmetry=a'

         Total DFT energy =      -40.456859417806

 Vector    1  Occ=2.000000D+00  E=-1.021104D+01  Symmetry=a'

 Vector    2  Occ=2.000000D+00  E=-7.101132D-01  Symmetry=a'

 Vector    3  Occ=2.000000D+00  E=-4.003461D-01  Symmetry=a'

 Vector    4  Occ=2.000000D+00  E=-3.990699D-01  Symmetry=a"

 Vector    5  Occ=2.000000D+00  E=-3.987711D-01  Symmetry=a'

 Vector    6  Occ=0.000000D+00  E= 1.332649D-01  Symmetry=a'

 Vector    7  Occ=0.000000D+00  E= 1.890233D-01  Symmetry=a'

 Vector    8  Occ=0.000000D+00  E= 1.892149D-01  Symmetry=a"

 Vector    9  Occ=0.000000D+00  E= 1.906127D-01  Symmetry=a'

 Vector   10  Occ=0.000000D+00  E= 5.521824D-01  Symmetry=a'

 Vector   11  Occ=0.000000D+00  E= 5.534258D-01  Symmetry=a"

 Vector   12  Occ=0.000000D+00  E= 5.537292D-01  Symmetry=a'

 Vector   13  Occ=0.000000D+00  E= 9.238427D-01  Symmetry=a'

 Vector   14  Occ=0.000000D+00  E= 9.243906D-01  Symmetry=a"

 Vector   15  Occ=0.000000D+00  E= 9.275109D-01  Symmetry=a'

 Vector   16  Occ=0.000000D+00  E= 9.754130D-01  Symmetry=a'

 Vector   17  Occ=0.000000D+00  E= 1.115416D+00  Symmetry=a'

 Vector   18  Occ=0.000000D+00  E= 1.662733D+00  Symmetry=a'

 Vector   19  Occ=0.000000D+00  E= 1.662990D+00  Symmetry=a"

 Vector   20  Occ=0.000000D+00  E= 2.260122D+00  Symmetry=a'

 Vector   21  Occ=0.000000D+00  E= 2.260849D+00  Symmetry=a"

 Vector   22  Occ=0.000000D+00  E= 2.265677D+00  Symmetry=a'

 Vector   23  Occ=0.000000D+00  E= 4.218281D+00  Symmetry=a'

@    3     -40.45685942 -6.3D-04  0.00288  0.00102  0.02345  0.04561      1.3
         Total DFT energy =      -40.456875491387

 Vector    1  Occ=2.000000D+00  E=-1.021113D+01  Symmetry=a'

 Vector    2  Occ=2.000000D+00  E=-7.100535D-01  Symmetry=a'

 Vector    3  Occ=2.000000D+00  E=-3.995655D-01  Symmetry=a'

 Vector    4  Occ=2.000000D+00  E=-3.992720D-01  Symmetry=a'

 Vector    5  Occ=2.000000D+00  E=-3.992580D-01  Symmetry=a"

 Vector    6  Occ=0.000000D+00  E= 1.332222D-01  Symmetry=a'

 Vector    7  Occ=0.000000D+00  E= 1.894971D-01  Symmetry=a'

 Vector    8  Occ=0.000000D+00  E= 1.894978D-01  Symmetry=a"

 Vector    9  Occ=0.000000D+00  E= 1.896696D-01  Symmetry=a'

 Vector   10  Occ=0.000000D+00  E= 5.531044D-01  Symmetry=a"

 Vector   11  Occ=0.000000D+00  E= 5.531131D-01  Symmetry=a'

 Vector   12  Occ=0.000000D+00  E= 5.532813D-01  Symmetry=a'

 Vector   13  Occ=0.000000D+00  E= 9.249917D-01  Symmetry=a'

 Vector   14  Occ=0.000000D+00  E= 9.249990D-01  Symmetry=a"

 Vector   15  Occ=0.000000D+00  E= 9.253742D-01  Symmetry=a'

 Vector   16  Occ=0.000000D+00  E= 9.750485D-01  Symmetry=a'

 Vector   17  Occ=0.000000D+00  E= 1.115352D+00  Symmetry=a'

 Vector   18  Occ=0.000000D+00  E= 1.662833D+00  Symmetry=a'

 Vector   19  Occ=0.000000D+00  E= 1.662958D+00  Symmetry=a"

 Vector   20  Occ=0.000000D+00  E= 2.261720D+00  Symmetry=a'

 Vector   21  Occ=0.000000D+00  E= 2.262063D+00  Symmetry=a'

 Vector   22  Occ=0.000000D+00  E= 2.262081D+00  Symmetry=a"

 Vector   23  Occ=0.000000D+00  E= 4.218138D+00  Symmetry=a'

         Total DFT energy =    -40.456875491387
@    4     -40.45687549 -1.6D-05  0.00011  0.00006  0.00184  0.00504      1.4
         Total DFT energy =      -40.456875738415

                       DFT Final Molecular Orbital Analysis
                       ------------------------------------

 Vector    1  Occ=2.000000D+00  E=-1.021114D+01  Symmetry=a'

 Vector    2  Occ=2.000000D+00  E=-7.100536D-01  Symmetry=a'

 Vector    3  Occ=2.000000D+00  E=-3.994030D-01  Symmetry=a'

 Vector    4  Occ=2.000000D+00  E=-3.993546D-01  Symmetry=a'

 Vector    5  Occ=2.000000D+00  E=-3.993413D-01  Symmetry=a"

 Vector    6  Occ=0.000000D+00  E= 1.332181D-01  Symmetry=a'

 Vector    7  Occ=0.000000D+00  E= 1.895372D-01  Symmetry=a"

 Vector    8  Occ=0.000000D+00  E= 1.895437D-01  Symmetry=a'

 Vector    9  Occ=0.000000D+00  E= 1.895682D-01  Symmetry=a'

 Vector   10  Occ=0.000000D+00  E= 5.531524D-01  Symmetry=a"

 Vector   11  Occ=0.000000D+00  E= 5.531573D-01  Symmetry=a'

 Vector   12  Occ=0.000000D+00  E= 5.531914D-01  Symmetry=a'

 Vector   13  Occ=0.000000D+00  E= 9.250824D-01  Symmetry=a"

 Vector   14  Occ=0.000000D+00  E= 9.250996D-01  Symmetry=a'

 Vector   15  Occ=0.000000D+00  E= 9.251489D-01  Symmetry=a'

 Vector   16  Occ=0.000000D+00  E= 9.750303D-01  Symmetry=a'

 Vector   17  Occ=0.000000D+00  E= 1.115347D+00  Symmetry=a'

 Vector   18  Occ=0.000000D+00  E= 1.662880D+00  Symmetry=a'

 Vector   19  Occ=0.000000D+00  E= 1.662905D+00  Symmetry=a"

 Vector   20  Occ=0.000000D+00  E= 2.261879D+00  Symmetry=a'

 Vector   21  Occ=0.000000D+00  E= 2.261960D+00  Symmetry=a'

 Vector   22  Occ=0.000000D+00  E= 2.261969D+00  Symmetry=a"

 Vector   23  Occ=0.000000D+00  E= 4.218124D+00  Symmetry=a'

     Multipole analysis of the density
     ---------------------------------

     L   x y z        total         alpha         beta         nuclear
     -   - - -        -----         -----         ----         -------
     0   0 0 0     -0.000000     -5.000000     -5.000000     10.000000

     1   1 0 0      0.000036      0.138933      0.138933     -0.277830
     1   0 1 0     -0.000001      0.310624      0.310624     -0.621249
     1   0 0 1     -0.000000     -0.000000     -0.000000      0.000000

     2   2 0 0     -6.114148     -5.903004     -5.903004      5.691859
     2   1 1 0      0.000346     -0.009004     -0.009004      0.018353
     2   1 0 1      0.000000      0.000000      0.000000      0.000000
     2   0 2 0     -6.114148     -5.918475     -5.918475      5.722802
     2   0 1 1     -0.000000     -0.000000     -0.000000      0.000000

         Total DFT energy =    -40.456875738415
@    5     -40.45687574 -2.5D-07  0.00002  0.00001  0.00042  0.00083      1.6
@    5     -40.45687574 -2.5D-07  0.00002  0.00001  0.00042  0.00083      1.6

 Output coordinates in angstroms (scale by  1.889725989 to convert to a.u.)

  No.       Tag          Charge          X              Y              Z
 ---- ---------------- ---------- -------------- -------------- --------------
    1 C                    6.0000    -0.01472567    -0.03287858     0.00000000
    2 H                    1.0000     0.29747246     0.51537176     0.89199064
    3 H                    1.0000     0.29747246     0.51537176    -0.89199064
    4 H                    1.0000    -1.10204729    -0.13982611     0.00000000
    5 H                    1.0000     0.44843497    -1.02239655     0.00000000

 Total times  cpu:        3.1s     wall:        1.6s
